                                                                                      
                                       ``:oss/                                        
                           `.+s+.     .+ys--yh+     `./ss+.                           
                          -sh//yy+`   +yy   +yy    -+h+-oyy                           
                          -yh- .oyy/.-sh.   .syo-.:sy-  /yh                           
                 `.-.`    `yh+   -oyyyo.     `/syys:    oys      `.`                  
               `/+ssys+-` `sh+      `                   oys`   .:osyo`                
               -yh- ./syyooyo`                          .sys+/oyo--yh/                
               `yy+    .-:-.                             `-/+/:`  -sh-                
                /yh.                                              oys                 
          ``..---hho---------`   .---------..`      `.-----.`    -hd+---.             
       `./osmNMMMMMMMMMMMMMMMs. +NNMMMMMMMMNNmh+.   yNMMMMMNm-  oNMMMMMNmo++:`        
       +sy--/sdMMMhyyyyyyyNMMh- .oyNMMmyyyyyhNMMm+` -yMMMdyyo:` .oyyNMMNhs+syy`       
       -yy/   /MMM+.`-+/``mMMy-   `mMMh:`````.dMMN:` `MMMy-`-dhhy```mMMy:``+hs        
        -yy+` /MMMo:-mMM+`-oo/.    mMMh:     `dMMN/`  dMMm:`dMMMMy..MMMo-.+yo`        
         .sys`/MMMMNNMMMs-         mMMmyooooymMMNo:   oMMM/sMMMMMM++MMN//oh:          
          `sh+/MMMhyyMMMs- `-`     mMMMMMMMMMNmy+-`   -MMMhMMMsmMMmdMMd/yy+           
    `-/+++oyy-/MMM+.`/hh/.`mNm:`   mMMd+/////:-.`      NMMMMMd/:NMMMMMy:/yyo/:.`      
   +os+//:-..-oMMMo:--:::-/MMMo. .-mMMd+---`           hMMMMN+. oMMMMMo. `-+osyso:`   
   syo     `mNMMMMMNNNNNNNNMMMo.oNNMMMMMNNNN:`         +MMMMs:`  dMMMN/`     ``:syo   
   /yh`     :syyyyyyyyyyyyyyyy+.`+syyyyyyyyo:`         .oyys:`   .oyys:`        +yh   
   -yh-        ````````````````    `````````              ``        ``          oys   
   -+h/------------------------::::::::://////++++++++++++++++++++++///////::::/yd:   
   shdddddddddddddddddddddddddddddhhhhhhhhyyyyyssssssssssssssssyyyyyyyhhhhhhhddddh`   
                                                                                      
  S. Ponce, E. R. Margine, C. Verdi, and F. Giustino,                                 
                                                Comput. Phys. Commun. 209, 116 (2016) 
                                                                                      

     Program EPW v.5.3.1 starts on 15Jun2021 at 22:49:25 

     This program is part of the open-source Quantum ESPRESSO suite
     for quantum simulation of materials; please cite
         "P. Giannozzi et al., J. Phys.:Condens. Matter 21 395502 (2009);
         "P. Giannozzi et al., J. Phys.:Condens. Matter 29 465901 (2017);
          URL http://www.quantum-espresso.org", 
     in publications or presentations arising from this work. More details at
     http://www.quantum-espresso.org/quote

     Parallel version (MPI & OpenMP), running on       4 processor cores
     Number of MPI processes:                 4
     Threads/MPI process:                     1

     MPI processes distributed on     1 nodes
     K-points division:     npool     =       4
     Reading input from sic.epw1.in

     No temperature supplied. Setting temps(:) to 300 K.

     Reading xml data from directory:

     ./sic.save/
     file C.UPF: wavefunction(s)  3d renormalized

     IMPORTANT: XC functional enforced from input :
     Exchange-correlation= PZ
                           (   1   1   0   0   0   0   0)
     Any further DFT definition will be discarded
     Please, verify this is what you really want


     G-vector sticks info
     --------------------
     sticks:   dense  smooth     PW     G-vecs:    dense   smooth      PW
     Sum         283     283    109                 3119     3119     725

     Reading collected, re-writing distributed wavefunctions

     --                                                                         

     bravais-lattice index     =            2
     lattice parameter (a_0)   =       8.2370  a.u.
     unit-cell volume          =     139.7163 (a.u.)^3
     number of atoms/cell      =            2
     number of atomic types    =            2
     kinetic-energy cut-off    =      30.0000  Ry
     charge density cut-off    =     120.0000  Ry
     Exchange-correlation= PZ
                           (   1   1   0   0   0   0   0)


     celldm(1)=    8.23700  celldm(2)=    0.00000  celldm(3)=    0.00000
     celldm(4)=    0.00000  celldm(5)=    0.00000  celldm(6)=    0.00000

     crystal axes: (cart. coord. in units of a_0)
               a(1) = ( -0.5000  0.0000  0.5000 )  
               a(2) = (  0.0000  0.5000  0.5000 )  
               a(3) = ( -0.5000  0.5000  0.0000 )  

     reciprocal axes: (cart. coord. in units 2 pi/a_0)
               b(1) = ( -1.0000 -1.0000  1.0000 )  
               b(2) = (  1.0000  1.0000  1.0000 )  
               b(3) = ( -1.0000  1.0000 -1.0000 )  


     Atoms inside the unit cell: 

   Cartesian axes

     site n.  atom      mass           positions (a_0 units)
        1        Si  28.0855   tau( 1) = (    0.00000    0.00000    0.00000  )
        2        C   12.0108   tau( 2) = (    0.25000    0.25000    0.25000  )

     25 Sym.Ops. (with q -> -q+G )


     G cutoff =  206.2337  (   3119 G-vectors)     FFT grid: ( 24, 24, 24)
     number of k points=  216
                       cart. coord. in units 2pi/a_0
        k(    1) = (   0.0000000   0.0000000   0.0000000), wk =   0.0092593
        k(    2) = (  -0.1666667   0.1666667  -0.1666667), wk =   0.0092593
        k(    3) = (  -0.3333333   0.3333333  -0.3333333), wk =   0.0092593
        k(    4) = (  -0.5000000   0.5000000  -0.5000000), wk =   0.0092593
        k(    5) = (  -0.6666667   0.6666667  -0.6666667), wk =   0.0092593
        k(    6) = (  -0.8333333   0.8333333  -0.8333333), wk =   0.0092593
        k(    7) = (   0.1666667   0.1666667   0.1666667), wk =   0.0092593
        k(    8) = (   0.0000000   0.3333333   0.0000000), wk =   0.0092593
        k(    9) = (  -0.1666667   0.5000000  -0.1666667), wk =   0.0092593
        k(   10) = (  -0.3333333   0.6666667  -0.3333333), wk =   0.0092593
        k(   11) = (  -0.5000000   0.8333333  -0.5000000), wk =   0.0092593
        k(   12) = (  -0.6666667   1.0000000  -0.6666667), wk =   0.0092593
        k(   13) = (   0.3333333   0.3333333   0.3333333), wk =   0.0092593
        k(   14) = (   0.1666667   0.5000000   0.1666667), wk =   0.0092593
        k(   15) = (   0.0000000   0.6666667   0.0000000), wk =   0.0092593
        k(   16) = (  -0.1666667   0.8333333  -0.1666667), wk =   0.0092593
        k(   17) = (  -0.3333333   1.0000000  -0.3333333), wk =   0.0092593
        k(   18) = (  -0.5000000   1.1666667  -0.5000000), wk =   0.0092593
        k(   19) = (   0.5000000   0.5000000   0.5000000), wk =   0.0092593
        k(   20) = (   0.3333333   0.6666667   0.3333333), wk =   0.0092593
        k(   21) = (   0.1666667   0.8333333   0.1666667), wk =   0.0092593
        k(   22) = (   0.0000000   1.0000000   0.0000000), wk =   0.0092593
        k(   23) = (  -0.1666667   1.1666667  -0.1666667), wk =   0.0092593
        k(   24) = (  -0.3333333   1.3333333  -0.3333333), wk =   0.0092593
        k(   25) = (   0.6666667   0.6666667   0.6666667), wk =   0.0092593
        k(   26) = (   0.5000000   0.8333333   0.5000000), wk =   0.0092593
        k(   27) = (   0.3333333   1.0000000   0.3333333), wk =   0.0092593
        k(   28) = (   0.1666667   1.1666667   0.1666667), wk =   0.0092593
        k(   29) = (   0.0000000   1.3333333   0.0000000), wk =   0.0092593
        k(   30) = (  -0.1666667   1.5000000  -0.1666667), wk =   0.0092593
        k(   31) = (   0.8333333   0.8333333   0.8333333), wk =   0.0092593
        k(   32) = (   0.6666667   1.0000000   0.6666667), wk =   0.0092593
        k(   33) = (   0.5000000   1.1666667   0.5000000), wk =   0.0092593
        k(   34) = (   0.3333333   1.3333333   0.3333333), wk =   0.0092593
        k(   35) = (   0.1666667   1.5000000   0.1666667), wk =   0.0092593
        k(   36) = (   0.0000000   1.6666667   0.0000000), wk =   0.0092593
        k(   37) = (  -0.1666667  -0.1666667   0.1666667), wk =   0.0092593
        k(   38) = (  -0.3333333   0.0000000   0.0000000), wk =   0.0092593
        k(   39) = (  -0.5000000   0.1666667  -0.1666667), wk =   0.0092593
        k(   40) = (  -0.6666667   0.3333333  -0.3333333), wk =   0.0092593
        k(   41) = (  -0.8333333   0.5000000  -0.5000000), wk =   0.0092593
        k(   42) = (  -1.0000000   0.6666667  -0.6666667), wk =   0.0092593
        k(   43) = (   0.0000000   0.0000000   0.3333333), wk =   0.0092593
        k(   44) = (  -0.1666667   0.1666667   0.1666667), wk =   0.0092593
        k(   45) = (  -0.3333333   0.3333333   0.0000000), wk =   0.0092593
        k(   46) = (  -0.5000000   0.5000000  -0.1666667), wk =   0.0092593
        k(   47) = (  -0.6666667   0.6666667  -0.3333333), wk =   0.0092593
        k(   48) = (  -0.8333333   0.8333333  -0.5000000), wk =   0.0092593
        k(   49) = (   0.1666667   0.1666667   0.5000000), wk =   0.0092593
        k(   50) = (  -0.0000000   0.3333333   0.3333333), wk =   0.0092593
        k(   51) = (  -0.1666667   0.5000000   0.1666667), wk =   0.0092593
        k(   52) = (  -0.3333333   0.6666667   0.0000000), wk =   0.0092593
        k(   53) = (  -0.5000000   0.8333333  -0.1666667), wk =   0.0092593
        k(   54) = (  -0.6666667   1.0000000  -0.3333333), wk =   0.0092593
        k(   55) = (   0.3333333   0.3333333   0.6666667), wk =   0.0092593
        k(   56) = (   0.1666667   0.5000000   0.5000000), wk =   0.0092593
        k(   57) = (   0.0000000   0.6666667   0.3333333), wk =   0.0092593
        k(   58) = (  -0.1666667   0.8333333   0.1666667), wk =   0.0092593
        k(   59) = (  -0.3333333   1.0000000   0.0000000), wk =   0.0092593
        k(   60) = (  -0.5000000   1.1666667  -0.1666667), wk =   0.0092593
        k(   61) = (   0.5000000   0.5000000   0.8333333), wk =   0.0092593
        k(   62) = (   0.3333333   0.6666667   0.6666667), wk =   0.0092593
        k(   63) = (   0.1666667   0.8333333   0.5000000), wk =   0.0092593
        k(   64) = (   0.0000000   1.0000000   0.3333333), wk =   0.0092593
        k(   65) = (  -0.1666667   1.1666667   0.1666667), wk =   0.0092593
        k(   66) = (  -0.3333333   1.3333333   0.0000000), wk =   0.0092593
        k(   67) = (   0.6666667   0.6666667   1.0000000), wk =   0.0092593
        k(   68) = (   0.5000000   0.8333333   0.8333333), wk =   0.0092593
        k(   69) = (   0.3333333   1.0000000   0.6666667), wk =   0.0092593
        k(   70) = (   0.1666667   1.1666667   0.5000000), wk =   0.0092593
        k(   71) = (  -0.0000000   1.3333333   0.3333333), wk =   0.0092593
        k(   72) = (  -0.1666667   1.5000000   0.1666667), wk =   0.0092593
        k(   73) = (  -0.3333333  -0.3333333   0.3333333), wk =   0.0092593
        k(   74) = (  -0.5000000  -0.1666667   0.1666667), wk =   0.0092593
        k(   75) = (  -0.6666667   0.0000000   0.0000000), wk =   0.0092593
        k(   76) = (  -0.8333333   0.1666667  -0.1666667), wk =   0.0092593
        k(   77) = (  -1.0000000   0.3333333  -0.3333333), wk =   0.0092593
        k(   78) = (  -1.1666667   0.5000000  -0.5000000), wk =   0.0092593
        k(   79) = (  -0.1666667  -0.1666667   0.5000000), wk =   0.0092593
        k(   80) = (  -0.3333333   0.0000000   0.3333333), wk =   0.0092593
        k(   81) = (  -0.5000000   0.1666667   0.1666667), wk =   0.0092593
        k(   82) = (  -0.6666667   0.3333333   0.0000000), wk =   0.0092593
        k(   83) = (  -0.8333333   0.5000000  -0.1666667), wk =   0.0092593
        k(   84) = (  -1.0000000   0.6666667  -0.3333333), wk =   0.0092593
        k(   85) = (   0.0000000   0.0000000   0.6666667), wk =   0.0092593
        k(   86) = (  -0.1666667   0.1666667   0.5000000), wk =   0.0092593
        k(   87) = (  -0.3333333   0.3333333   0.3333333), wk =   0.0092593
        k(   88) = (  -0.5000000   0.5000000   0.1666667), wk =   0.0092593
        k(   89) = (  -0.6666667   0.6666667  -0.0000000), wk =   0.0092593
        k(   90) = (  -0.8333333   0.8333333  -0.1666667), wk =   0.0092593
        k(   91) = (   0.1666667   0.1666667   0.8333333), wk =   0.0092593
        k(   92) = (   0.0000000   0.3333333   0.6666667), wk =   0.0092593
        k(   93) = (  -0.1666667   0.5000000   0.5000000), wk =   0.0092593
        k(   94) = (  -0.3333333   0.6666667   0.3333333), wk =   0.0092593
        k(   95) = (  -0.5000000   0.8333333   0.1666667), wk =   0.0092593
        k(   96) = (  -0.6666667   1.0000000   0.0000000), wk =   0.0092593
        k(   97) = (   0.3333333   0.3333333   1.0000000), wk =   0.0092593
        k(   98) = (   0.1666667   0.5000000   0.8333333), wk =   0.0092593
        k(   99) = (   0.0000000   0.6666667   0.6666667), wk =   0.0092593
        k(  100) = (  -0.1666667   0.8333333   0.5000000), wk =   0.0092593
        k(  101) = (  -0.3333333   1.0000000   0.3333333), wk =   0.0092593
        k(  102) = (  -0.5000000   1.1666667   0.1666667), wk =   0.0092593
        k(  103) = (   0.5000000   0.5000000   1.1666667), wk =   0.0092593
        k(  104) = (   0.3333333   0.6666667   1.0000000), wk =   0.0092593
        k(  105) = (   0.1666667   0.8333333   0.8333333), wk =   0.0092593
        k(  106) = (   0.0000000   1.0000000   0.6666667), wk =   0.0092593
        k(  107) = (  -0.1666667   1.1666667   0.5000000), wk =   0.0092593
        k(  108) = (  -0.3333333   1.3333333   0.3333333), wk =   0.0092593
        k(  109) = (  -0.5000000  -0.5000000   0.5000000), wk =   0.0092593
        k(  110) = (  -0.6666667  -0.3333333   0.3333333), wk =   0.0092593
        k(  111) = (  -0.8333333  -0.1666667   0.1666667), wk =   0.0092593
        k(  112) = (  -1.0000000   0.0000000   0.0000000), wk =   0.0092593
        k(  113) = (  -1.1666667   0.1666667  -0.1666667), wk =   0.0092593
        k(  114) = (  -1.3333333   0.3333333  -0.3333333), wk =   0.0092593
        k(  115) = (  -0.3333333  -0.3333333   0.6666667), wk =   0.0092593
        k(  116) = (  -0.5000000  -0.1666667   0.5000000), wk =   0.0092593
        k(  117) = (  -0.6666667   0.0000000   0.3333333), wk =   0.0092593
        k(  118) = (  -0.8333333   0.1666667   0.1666667), wk =   0.0092593
        k(  119) = (  -1.0000000   0.3333333   0.0000000), wk =   0.0092593
        k(  120) = (  -1.1666667   0.5000000  -0.1666667), wk =   0.0092593
        k(  121) = (  -0.1666667  -0.1666667   0.8333333), wk =   0.0092593
        k(  122) = (  -0.3333333  -0.0000000   0.6666667), wk =   0.0092593
        k(  123) = (  -0.5000000   0.1666667   0.5000000), wk =   0.0092593
        k(  124) = (  -0.6666667   0.3333333   0.3333333), wk =   0.0092593
        k(  125) = (  -0.8333333   0.5000000   0.1666667), wk =   0.0092593
        k(  126) = (  -1.0000000   0.6666667   0.0000000), wk =   0.0092593
        k(  127) = (   0.0000000   0.0000000   1.0000000), wk =   0.0092593
        k(  128) = (  -0.1666667   0.1666667   0.8333333), wk =   0.0092593
        k(  129) = (  -0.3333333   0.3333333   0.6666667), wk =   0.0092593
        k(  130) = (  -0.5000000   0.5000000   0.5000000), wk =   0.0092593
        k(  131) = (  -0.6666667   0.6666667   0.3333333), wk =   0.0092593
        k(  132) = (  -0.8333333   0.8333333   0.1666667), wk =   0.0092593
        k(  133) = (   0.1666667   0.1666667   1.1666667), wk =   0.0092593
        k(  134) = (   0.0000000   0.3333333   1.0000000), wk =   0.0092593
        k(  135) = (  -0.1666667   0.5000000   0.8333333), wk =   0.0092593
        k(  136) = (  -0.3333333   0.6666667   0.6666667), wk =   0.0092593
        k(  137) = (  -0.5000000   0.8333333   0.5000000), wk =   0.0092593
        k(  138) = (  -0.6666667   1.0000000   0.3333333), wk =   0.0092593
        k(  139) = (   0.3333333   0.3333333   1.3333333), wk =   0.0092593
        k(  140) = (   0.1666667   0.5000000   1.1666667), wk =   0.0092593
        k(  141) = (   0.0000000   0.6666667   1.0000000), wk =   0.0092593
        k(  142) = (  -0.1666667   0.8333333   0.8333333), wk =   0.0092593
        k(  143) = (  -0.3333333   1.0000000   0.6666667), wk =   0.0092593
        k(  144) = (  -0.5000000   1.1666667   0.5000000), wk =   0.0092593
        k(  145) = (  -0.6666667  -0.6666667   0.6666667), wk =   0.0092593
        k(  146) = (  -0.8333333  -0.5000000   0.5000000), wk =   0.0092593
        k(  147) = (  -1.0000000  -0.3333333   0.3333333), wk =   0.0092593
        k(  148) = (  -1.1666667  -0.1666667   0.1666667), wk =   0.0092593
        k(  149) = (  -1.3333333   0.0000000   0.0000000), wk =   0.0092593
        k(  150) = (  -1.5000000   0.1666667  -0.1666667), wk =   0.0092593
        k(  151) = (  -0.5000000  -0.5000000   0.8333333), wk =   0.0092593
        k(  152) = (  -0.6666667  -0.3333333   0.6666667), wk =   0.0092593
        k(  153) = (  -0.8333333  -0.1666667   0.5000000), wk =   0.0092593
        k(  154) = (  -1.0000000   0.0000000   0.3333333), wk =   0.0092593
        k(  155) = (  -1.1666667   0.1666667   0.1666667), wk =   0.0092593
        k(  156) = (  -1.3333333   0.3333333   0.0000000), wk =   0.0092593
        k(  157) = (  -0.3333333  -0.3333333   1.0000000), wk =   0.0092593
        k(  158) = (  -0.5000000  -0.1666667   0.8333333), wk =   0.0092593
        k(  159) = (  -0.6666667  -0.0000000   0.6666667), wk =   0.0092593
        k(  160) = (  -0.8333333   0.1666667   0.5000000), wk =   0.0092593
        k(  161) = (  -1.0000000   0.3333333   0.3333333), wk =   0.0092593
        k(  162) = (  -1.1666667   0.5000000   0.1666667), wk =   0.0092593
        k(  163) = (  -0.1666667  -0.1666667   1.1666667), wk =   0.0092593
        k(  164) = (  -0.3333333  -0.0000000   1.0000000), wk =   0.0092593
        k(  165) = (  -0.5000000   0.1666667   0.8333333), wk =   0.0092593
        k(  166) = (  -0.6666667   0.3333333   0.6666667), wk =   0.0092593
        k(  167) = (  -0.8333333   0.5000000   0.5000000), wk =   0.0092593
        k(  168) = (  -1.0000000   0.6666667   0.3333333), wk =   0.0092593
        k(  169) = (   0.0000000   0.0000000   1.3333333), wk =   0.0092593
        k(  170) = (  -0.1666667   0.1666667   1.1666667), wk =   0.0092593
        k(  171) = (  -0.3333333   0.3333333   1.0000000), wk =   0.0092593
        k(  172) = (  -0.5000000   0.5000000   0.8333333), wk =   0.0092593
        k(  173) = (  -0.6666667   0.6666667   0.6666667), wk =   0.0092593
        k(  174) = (  -0.8333333   0.8333333   0.5000000), wk =   0.0092593
        k(  175) = (   0.1666667   0.1666667   1.5000000), wk =   0.0092593
        k(  176) = (  -0.0000000   0.3333333   1.3333333), wk =   0.0092593
        k(  177) = (  -0.1666667   0.5000000   1.1666667), wk =   0.0092593
        k(  178) = (  -0.3333333   0.6666667   1.0000000), wk =   0.0092593
        k(  179) = (  -0.5000000   0.8333333   0.8333333), wk =   0.0092593
        k(  180) = (  -0.6666667   1.0000000   0.6666667), wk =   0.0092593
        k(  181) = (  -0.8333333  -0.8333333   0.8333333), wk =   0.0092593
        k(  182) = (  -1.0000000  -0.6666667   0.6666667), wk =   0.0092593
        k(  183) = (  -1.1666667  -0.5000000   0.5000000), wk =   0.0092593
        k(  184) = (  -1.3333333  -0.3333333   0.3333333), wk =   0.0092593
        k(  185) = (  -1.5000000  -0.1666667   0.1666667), wk =   0.0092593
        k(  186) = (  -1.6666667   0.0000000   0.0000000), wk =   0.0092593
        k(  187) = (  -0.6666667  -0.6666667   1.0000000), wk =   0.0092593
        k(  188) = (  -0.8333333  -0.5000000   0.8333333), wk =   0.0092593
        k(  189) = (  -1.0000000  -0.3333333   0.6666667), wk =   0.0092593
        k(  190) = (  -1.1666667  -0.1666667   0.5000000), wk =   0.0092593
        k(  191) = (  -1.3333333   0.0000000   0.3333333), wk =   0.0092593
        k(  192) = (  -1.5000000   0.1666667   0.1666667), wk =   0.0092593
        k(  193) = (  -0.5000000  -0.5000000   1.1666667), wk =   0.0092593
        k(  194) = (  -0.6666667  -0.3333333   1.0000000), wk =   0.0092593
        k(  195) = (  -0.8333333  -0.1666667   0.8333333), wk =   0.0092593
        k(  196) = (  -1.0000000   0.0000000   0.6666667), wk =   0.0092593
        k(  197) = (  -1.1666667   0.1666667   0.5000000), wk =   0.0092593
        k(  198) = (  -1.3333333   0.3333333   0.3333333), wk =   0.0092593
        k(  199) = (  -0.3333333  -0.3333333   1.3333333), wk =   0.0092593
        k(  200) = (  -0.5000000  -0.1666667   1.1666667), wk =   0.0092593
        k(  201) = (  -0.6666667   0.0000000   1.0000000), wk =   0.0092593
        k(  202) = (  -0.8333333   0.1666667   0.8333333), wk =   0.0092593
        k(  203) = (  -1.0000000   0.3333333   0.6666667), wk =   0.0092593
        k(  204) = (  -1.1666667   0.5000000   0.5000000), wk =   0.0092593
        k(  205) = (  -0.1666667  -0.1666667   1.5000000), wk =   0.0092593
        k(  206) = (  -0.3333333   0.0000000   1.3333333), wk =   0.0092593
        k(  207) = (  -0.5000000   0.1666667   1.1666667), wk =   0.0092593
        k(  208) = (  -0.6666667   0.3333333   1.0000000), wk =   0.0092593
        k(  209) = (  -0.8333333   0.5000000   0.8333333), wk =   0.0092593
        k(  210) = (  -1.0000000   0.6666667   0.6666667), wk =   0.0092593
        k(  211) = (   0.0000000   0.0000000   1.6666667), wk =   0.0092593
        k(  212) = (  -0.1666667   0.1666667   1.5000000), wk =   0.0092593
        k(  213) = (  -0.3333333   0.3333333   1.3333333), wk =   0.0092593
        k(  214) = (  -0.5000000   0.5000000   1.1666667), wk =   0.0092593
        k(  215) = (  -0.6666667   0.6666667   1.0000000), wk =   0.0092593
        k(  216) = (  -0.8333333   0.8333333   0.8333333), wk =   0.0092593

     PseudoPot. # 1 for Si read from file:
     ../Si.pz-vbc.UPF
     MD5 check sum: 6dfa03ddd5817404712e03e4d12deb78
     Pseudo is Norm-conserving, Zval =  4.0
     Generated by new atomic code, or converted to UPF format
     Using radial grid of  431 points,  2 beta functions with: 
                l(1) =   0
                l(2) =   1

     PseudoPot. # 2 for C  read from file:
     ../C.UPF
     MD5 check sum: 4781e8ce5ee01a432381f51d0ea25c53
     Pseudo is Norm-conserving, Zval =  4.0
     Generated by new atomic code, or converted to UPF format
     Using radial grid of  461 points,  2 beta functions with: 
                l(1) =   0
                l(2) =   1
     EPW          :      0.28s CPU      0.35s WALL

     EPW          :      0.30s CPU      0.37s WALL

     -------------------------------------------------------------------
     Wannierization on  6 x  6 x  6 electronic grid
     -------------------------------------------------------------------

     Spin CASE ( default = unpolarized )

     Initializing Wannier90


     Initial Wannier projections

     (   0.00000   0.00000   0.00000) :  l =  -3 mr =   1
     (   0.00000   0.00000   0.00000) :  l =  -3 mr =   2
     (   0.00000   0.00000   0.00000) :  l =  -3 mr =   3
     (   0.00000   0.00000   0.00000) :  l =  -3 mr =   4

      - Number of bands is (  4)
      - Number of total bands is (  4)
      - Number of excluded bands is (  0)
      - Number of wannier functions is (  4)
      - All guiding functions are given 

  Reading data about k-point neighbours 

      - All neighbours are found 

     AMN
      k points =   216 in    4 pools
            1 of   54 on ionode
            2 of   54 on ionode
            3 of   54 on ionode
            4 of   54 on ionode
            5 of   54 on ionode
            6 of   54 on ionode
            7 of   54 on ionode
            8 of   54 on ionode
            9 of   54 on ionode
           10 of   54 on ionode
           11 of   54 on ionode
           12 of   54 on ionode
           13 of   54 on ionode
           14 of   54 on ionode
           15 of   54 on ionode
           16 of   54 on ionode
           17 of   54 on ionode
           18 of   54 on ionode
           19 of   54 on ionode
           20 of   54 on ionode
           21 of   54 on ionode
           22 of   54 on ionode
           23 of   54 on ionode
           24 of   54 on ionode
           25 of   54 on ionode
           26 of   54 on ionode
           27 of   54 on ionode
           28 of   54 on ionode
           29 of   54 on ionode
           30 of   54 on ionode
           31 of   54 on ionode
           32 of   54 on ionode
           33 of   54 on ionode
           34 of   54 on ionode
           35 of   54 on ionode
           36 of   54 on ionode
           37 of   54 on ionode
           38 of   54 on ionode
           39 of   54 on ionode
           40 of   54 on ionode
           41 of   54 on ionode
           42 of   54 on ionode
           43 of   54 on ionode
           44 of   54 on ionode
           45 of   54 on ionode
           46 of   54 on ionode
           47 of   54 on ionode
           48 of   54 on ionode
           49 of   54 on ionode
           50 of   54 on ionode
           51 of   54 on ionode
           52 of   54 on ionode
           53 of   54 on ionode
           54 of   54 on ionode

     AMN calculated

     MMN
      k points =   216 in    4 pools
            1 of   54 on ionode
            2 of   54 on ionode
            3 of   54 on ionode
            4 of   54 on ionode
            5 of   54 on ionode
            6 of   54 on ionode
            7 of   54 on ionode
            8 of   54 on ionode
            9 of   54 on ionode
           10 of   54 on ionode
           11 of   54 on ionode
           12 of   54 on ionode
           13 of   54 on ionode
           14 of   54 on ionode
           15 of   54 on ionode
           16 of   54 on ionode
           17 of   54 on ionode
           18 of   54 on ionode
           19 of   54 on ionode
           20 of   54 on ionode
           21 of   54 on ionode
           22 of   54 on ionode
           23 of   54 on ionode
           24 of   54 on ionode
           25 of   54 on ionode
           26 of   54 on ionode
           27 of   54 on ionode
           28 of   54 on ionode
           29 of   54 on ionode
           30 of   54 on ionode
           31 of   54 on ionode
           32 of   54 on ionode
           33 of   54 on ionode
           34 of   54 on ionode
           35 of   54 on ionode
           36 of   54 on ionode
           37 of   54 on ionode
           38 of   54 on ionode
           39 of   54 on ionode
           40 of   54 on ionode
           41 of   54 on ionode
           42 of   54 on ionode
           43 of   54 on ionode
           44 of   54 on ionode
           45 of   54 on ionode
           46 of   54 on ionode
           47 of   54 on ionode
           48 of   54 on ionode
           49 of   54 on ionode
           50 of   54 on ionode
           51 of   54 on ionode
           52 of   54 on ionode
           53 of   54 on ionode
           54 of   54 on ionode
     MMN calculated

     Running Wannier90

     Wannier Function centers (cartesian, alat) and spreads (ang):

     (   0.16293   0.16293   0.16293) :   1.12254
     (   0.16293  -0.16293  -0.16293) :   1.12254
     (  -0.16293   0.16293  -0.16293) :   1.12254
     (  -0.16293  -0.16293   0.16293) :   1.12254

     -------------------------------------------------------------------
     WANNIER      :      3.24s CPU      3.35s WALL (       1 calls)
     -------------------------------------------------------------------

     Calculating kgmap

     Progress kgmap: ########################################
     kmaps        :      0.01s CPU      0.01s WALL (       1 calls)
     Symmetries of Bravais lattice:  48
     Symmetries of crystal:          24


     ===================================================================
     irreducible q point #    1
     ===================================================================

     Symmetries of small group of q: 24
          in addition sym. q -> -q+G:

     Number of q in the star =    1
     List of q in the star:
          1   0.000000000   0.000000000   0.000000000
     Imposing acoustic sum rule on the dynamical matrix
     Read dielectric tensor and effective charges

        q(    1 ) = (   0.0000000   0.0000000   0.0000000 )


     ===================================================================
     irreducible q point #    2
     ===================================================================

     Symmetries of small group of q:  6

     Number of q in the star =    4
     List of q in the star:
          1  -0.333333333   0.333333333  -0.333333333
          2   0.333333333   0.333333333   0.333333333
          3   0.333333333  -0.333333333  -0.333333333
          4  -0.333333333  -0.333333333   0.333333333
     In addition there is the -q list: 
          1   0.333333333  -0.333333333   0.333333333
          2  -0.333333333  -0.333333333  -0.333333333
          3  -0.333333333   0.333333333   0.333333333
          4   0.333333333   0.333333333  -0.333333333

        q(    2 ) = (  -0.3333333   0.3333333  -0.3333333 )

        q(    3 ) = (   0.3333333  -0.3333333   0.3333333 )
        q(    4 ) = (   0.3333333   0.3333333   0.3333333 )
        q(    5 ) = (  -0.3333333  -0.3333333  -0.3333333 )
        q(    6 ) = (   0.3333333  -0.3333333  -0.3333333 )
        q(    7 ) = (  -0.3333333   0.3333333   0.3333333 )
        q(    8 ) = (  -0.3333333  -0.3333333   0.3333333 )
        q(    9 ) = (   0.3333333   0.3333333  -0.3333333 )


     ===================================================================
     irreducible q point #    3
     ===================================================================

     Symmetries of small group of q:  4

     Number of q in the star =    6
     List of q in the star:
          1   0.000000000   0.666666667   0.000000000
          2   0.000000000   0.000000000  -0.666666667
          3  -0.666666667   0.000000000   0.000000000
          4   0.666666667   0.000000000   0.000000000
          5   0.000000000  -0.666666667   0.000000000
          6   0.000000000   0.000000000   0.666666667

        q(   10 ) = (   0.0000000   0.6666667   0.0000000 )
        q(   11 ) = (   0.0000000   0.0000000  -0.6666667 )
        q(   12 ) = (  -0.6666667   0.0000000   0.0000000 )
        q(   13 ) = (   0.6666667   0.0000000   0.0000000 )
        q(   14 ) = (   0.0000000  -0.6666667   0.0000000 )
        q(   15 ) = (   0.0000000   0.0000000   0.6666667 )


     ===================================================================
     irreducible q point #    4
     ===================================================================

     Symmetries of small group of q:  2

     Number of q in the star =   12
     List of q in the star:
          1   0.666666667   0.000000000   0.666666667
          2  -0.666666667   0.000000000  -0.666666667
          3   0.666666667  -0.666666667   0.000000000
          4   0.000000000  -0.666666667   0.666666667
          5   0.000000000  -0.666666667  -0.666666667
          6  -0.666666667   0.000000000   0.666666667
          7   0.666666667   0.666666667   0.000000000
          8  -0.666666667  -0.666666667   0.000000000
          9  -0.666666667   0.666666667   0.000000000
         10   0.666666667   0.000000000  -0.666666667
         11   0.000000000   0.666666667   0.666666667
         12   0.000000000   0.666666667  -0.666666667

        q(   16 ) = (   0.6666667   0.0000000   0.6666667 )
        q(   17 ) = (  -0.6666667   0.0000000  -0.6666667 )
        q(   18 ) = (   0.6666667  -0.6666667   0.0000000 )
        q(   19 ) = (   0.0000000  -0.6666667   0.6666667 )
        q(   20 ) = (  -0.0000000  -0.6666667  -0.6666667 )
        q(   21 ) = (  -0.6666667  -0.0000000   0.6666667 )
        q(   22 ) = (   0.6666667   0.6666667   0.0000000 )
        q(   23 ) = (  -0.6666667  -0.6666667   0.0000000 )
        q(   24 ) = (  -0.6666667   0.6666667   0.0000000 )
        q(   25 ) = (   0.6666667   0.0000000  -0.6666667 )
        q(   26 ) = (   0.0000000   0.6666667   0.6666667 )
        q(   27 ) = (   0.0000000   0.6666667  -0.6666667 )

     Computes the analytic long-range interaction for polar materials [lpolar]
      
     Use zone-centred Wigner-Seitz cells 
     Number of WS vectors for electrons      279
     Number of WS vectors for phonons       43
     Number of WS vectors for electron-phonon       43
     Maximum number of cores for efficient parallelization      258
     Results may improve by using use_ws == .TRUE. 

     Velocity matrix elements calculated
 
 
     Bloch2wane:          1 /         27
     Bloch2wane:          2 /         27
     Bloch2wane:          3 /         27
     Bloch2wane:          4 /         27
     Bloch2wane:          5 /         27
     Bloch2wane:          6 /         27
     Bloch2wane:          7 /         27
     Bloch2wane:          8 /         27
     Bloch2wane:          9 /         27
     Bloch2wane:         10 /         27
     Bloch2wane:         11 /         27
     Bloch2wane:         12 /         27
     Bloch2wane:         13 /         27
     Bloch2wane:         14 /         27
     Bloch2wane:         15 /         27
     Bloch2wane:         16 /         27
     Bloch2wane:         17 /         27
     Bloch2wane:         18 /         27
     Bloch2wane:         19 /         27
     Bloch2wane:         20 /         27
     Bloch2wane:         21 /         27
     Bloch2wane:         22 /         27
     Bloch2wane:         23 /         27
     Bloch2wane:         24 /         27
     Bloch2wane:         25 /         27
     Bloch2wane:         26 /         27
     Bloch2wane:         27 /         27
 
     Bloch2wanp:          1 /         11
     Bloch2wanp:          2 /         11
     Bloch2wanp:          3 /         11
     Bloch2wanp:          4 /         11
     Bloch2wanp:          5 /         11
     Bloch2wanp:          6 /         11
     Bloch2wanp:          7 /         11
     Bloch2wanp:          8 /         11
     Bloch2wanp:          9 /         11
     Bloch2wanp:         10 /         11
     Bloch2wanp:         11 /         11

     Writing Hamiltonian, Dynamical matrix and EP vertex in Wann rep to file

System file does not exist
     ===================================================================
     Memory usage:  VmHWM =         0Mb
                   VmPeak =         0Mb
     ===================================================================
     
     Using q-mesh file: path1.dat
     WARNING: q-point weigths do not add up to 1 [loadqmesh_serial]
     Size of q point mesh for interpolation:         41
     Using k-mesh file: onepoint.dat
     Size of k point mesh for interpolation:          2
     Max number of k points per pool:                2

     Fermi energy coarse grid =   9.359431 eV

     Fermi energy is calculated from the fine k-mesh: Ef =   4.596089 eV

     Warning: check if difference with Fermi level fine grid makes sense

     ===================================================================

              ibndmin =     1  ebndmin =    -0.913 eV
              ibndmax =     4  ebndmax =     4.575 eV


     Number of ep-matrix elements per pool :           96 ~=    0.75 Kb (@ 8 bytes/ DP)
     We only need to compute       41 q-points
      
      Electron-phonon vertex |g| (meV)

     iq =       1 coord.:    0.2500000  -0.5000000  -0.2500000
     ik =       1 coord.:    0.2500000  -0.5000000  -0.2500000
      ibnd     jbnd     imode   enk[eV]    enk+q[eV]  omega(q)[meV]   |g|[meV]
     ------------------------------------------------------------------------------
        1        1        1     -0.9130     -1.0625       47.6866390280    0.1984464145E+01
        1        1        2     -0.9130     -1.0625       53.6990056565    0.1029690684E+01
        1        1        3     -0.9130     -1.0625       66.8432647364    0.2161358200E+03
        1        1        4     -0.9130     -1.0625       88.2629786544    0.6078182175E+01
        1        1        5     -0.9130     -1.0625       92.1939256699    0.2620641373E+01
        1        1        6     -0.9130     -1.0625      101.2557503701    0.1852535011E+01
        1        2        1     -0.9130      1.5029       47.6866390280    0.2055197755E+01
        1        2        2     -0.9130      1.5029       53.6990056565    0.3839077286E+02
        1        2        3     -0.9130      1.5029       66.8432647364    0.2504045654E+01
        1        2        4     -0.9130      1.5029       88.2629786544    0.4814745237E+01
        1        2        5     -0.9130      1.5029       92.1939256699    0.3001492588E+03
        1        2        6     -0.9130      1.5029      101.2557503701    0.7011497827E+01
        1        3        1     -0.9130      6.1085       47.6866390280    0.5361589973E+02
        1        3        2     -0.9130      6.1085       53.6990056565    0.2578800818E+01
        1        3        3     -0.9130      6.1085       66.8432647364    0.4351070821E+01
        1        3        4     -0.9130      6.1085       88.2629786544    0.1538651799E+03
        1        3        5     -0.9130      6.1085       92.1939256699    0.3079365211E+01
        1        3        6     -0.9130      6.1085      101.2557503701    0.1621711391E+03
        1        4        1     -0.9130      6.1085       47.6866390280    0.5361589973E+02
        1        4        2     -0.9130      6.1085       53.6990056565    0.2578800818E+01
        1        4        3     -0.9130      6.1085       66.8432647364    0.4351070821E+01
        1        4        4     -0.9130      6.1085       88.2629786544    0.1538651799E+03
        1        4        5     -0.9130      6.1085       92.1939256699    0.3079365211E+01
        1        4        6     -0.9130      6.1085      101.2557503701    0.1621711391E+03
        2        1        1      2.3161     -1.0625       47.6866390280    0.1081917916E+03
        2        1        2      2.3161     -1.0625       53.6990056565    0.1814050776E+01
        2        1        3      2.3161     -1.0625       66.8432647364    0.4828518339E+01
        2        1        4      2.3161     -1.0625       88.2629786544    0.7876685842E+01
        2        1        5      2.3161     -1.0625       92.1939256699    0.9528566215E+01
        2        1        6      2.3161     -1.0625      101.2557503701    0.2894180374E+03
        2        2        1      2.3161      1.5029       47.6866390280    0.1990093899E+01
        2        2        2      2.3161      1.5029       53.6990056565    0.1255897069E+01
        2        2        3      2.3161      1.5029       66.8432647364    0.3676715653E+01
        2        2        4      2.3161      1.5029       88.2629786544    0.1623087165E+03
        2        2        5      2.3161      1.5029       92.1939256699    0.2456014986E+01
        2        2        6      2.3161      1.5029      101.2557503701    0.2583189742E+01
        2        3        1      2.3161      6.1085       47.6866390280    0.3853381045E+01
        2        3        2      2.3161      6.1085       53.6990056565    0.3451186540E+02
        2        3        3      2.3161      6.1085       66.8432647364    0.1148365636E+03
        2        3        4      2.3161      6.1085       88.2629786544    0.2493173752E+02
        2        3        5      2.3161      6.1085       92.1939256699    0.1194932528E+03
        2        3        6      2.3161      6.1085      101.2557503701    0.3925802074E+01
        2        4        1      2.3161      6.1085       47.6866390280    0.3853381045E+01
        2        4        2      2.3161      6.1085       53.6990056565    0.3451186540E+02
        2        4        3      2.3161      6.1085       66.8432647364    0.1148365636E+03
        2        4        4      2.3161      6.1085       88.2629786544    0.2493173752E+02
        2        4        5      2.3161      6.1085       92.1939256699    0.1194932528E+03
        2        4        6      2.3161      6.1085      101.2557503701    0.3925802074E+01
        3        1        1      4.1963     -1.0625       47.6866390280    0.8206863738E+00
        3        1        2      4.1963     -1.0625       53.6990056565    0.6497794841E+01
        3        1        3      4.1963     -1.0625       66.8432647364    0.6653213124E+01
        3        1        4      4.1963     -1.0625       88.2629786544    0.2961222618E+03
        3        1        5      4.1963     -1.0625       92.1939256699    0.1110406670E+02
        3        1        6      4.1963     -1.0625      101.2557503701    0.2693074319E+01
        3        2        1      4.1963      1.5029       47.6866390280    0.1205420953E+02
        3        2        2      4.1963      1.5029       53.6990056565    0.1152507373E+01
        3        2        3      4.1963      1.5029       66.8432647364    0.6204266015E+00
        3        2        4      4.1963      1.5029       88.2629786544    0.9378925561E+00
        3        2        5      4.1963      1.5029       92.1939256699    0.1245660406E+00
        3        2        6      4.1963      1.5029      101.2557503701    0.5050557049E+02
        3        3        1      4.1963      6.1085       47.6866390280    0.4382571886E+01
        3        3        2      4.1963      6.1085       53.6990056565    0.7663223920E+02
        3        3        3      4.1963      6.1085       66.8432647364    0.1454721166E+03
        3        3        4      4.1963      6.1085       88.2629786544    0.1329228470E+02
        3        3        5      4.1963      6.1085       92.1939256699    0.2813290189E+02
        3        3        6      4.1963      6.1085      101.2557503701    0.1343638278E+02
        3        4        1      4.1963      6.1085       47.6866390280    0.4382571886E+01
        3        4        2      4.1963      6.1085       53.6990056565    0.7663223920E+02
        3        4        3      4.1963      6.1085       66.8432647364    0.1454721166E+03
        3        4        4      4.1963      6.1085       88.2629786544    0.1329228470E+02
        3        4        5      4.1963      6.1085       92.1939256699    0.2813290189E+02
        3        4        6      4.1963      6.1085      101.2557503701    0.1343638278E+02
        4        1        1      4.5750     -1.0625       47.6866390280    0.6427060066E+01
        4        1        2      4.5750     -1.0625       53.6990056565    0.4673816674E+02
        4        1        3      4.5750     -1.0625       66.8432647364    0.5213717038E+00
        4        1        4      4.5750     -1.0625       88.2629786544    0.7009903493E+01
        4        1        5      4.5750     -1.0625       92.1939256699    0.1514834347E+03
        4        1        6      4.5750     -1.0625      101.2557503701    0.2118717838E+02
        4        2        1      4.5750      1.5029       47.6866390280    0.1922093467E+01
        4        2        2      4.5750      1.5029       53.6990056565    0.1205118298E+01
        4        2        3      4.5750      1.5029       66.8432647364    0.2554998457E+03
        4        2        4      4.5750      1.5029       88.2629786544    0.6507328214E+01
        4        2        5      4.5750      1.5029       92.1939256699    0.3127108260E+01
        4        2        6      4.5750      1.5029      101.2557503701    0.3482551583E+01
        4        3        1      4.5750      6.1085       47.6866390280    0.1512575227E+02
        4        3        2      4.5750      6.1085       53.6990056565    0.1279301345E+02
        4        3        3      4.5750      6.1085       66.8432647364    0.2650053283E+01
        4        3        4      4.5750      6.1085       88.2629786544    0.1130414982E+03
        4        3        5      4.5750      6.1085       92.1939256699    0.2153121814E+02
        4        3        6      4.5750      6.1085      101.2557503701    0.5023680545E+02
        4        4        1      4.5750      6.1085       47.6866390280    0.1512575227E+02
        4        4        2      4.5750      6.1085       53.6990056565    0.1279301345E+02
        4        4        3      4.5750      6.1085       66.8432647364    0.2650053283E+01
        4        4        4      4.5750      6.1085       88.2629786544    0.1130414982E+03
        4        4        5      4.5750      6.1085       92.1939256699    0.2153121814E+02
        4        4        6      4.5750      6.1085      101.2557503701    0.5023680545E+02
     ------------------------------------------------------------------------------

      Electron-phonon vertex |g| (meV)

     iq =       2 coord.:   -0.5000000   0.0000000  -0.5000000
     ik =       1 coord.:    0.2500000  -0.5000000  -0.2500000
      ibnd     jbnd     imode   enk[eV]    enk+q[eV]  omega(q)[meV]   |g|[meV]
     ------------------------------------------------------------------------------
        1        1        1     -0.9130     -0.9130       44.2862561472    0.4750530737E+00
        1        1        2     -0.9130     -0.9130       44.8121001120    0.5898837430E+01
        1        1        3     -0.9130     -0.9130       76.1919626197    0.2623467132E+03
        1        1        4     -0.9130     -0.9130       91.5479961236    0.1309757370E+02
        1        1        5     -0.9130     -0.9130       91.8083065343    0.8375088499E+00
        1        1        6     -0.9130     -0.9130       99.9295623563    0.2630713096E+02
        1        2        1     -0.9130      2.3161       44.2862561472    0.2064849949E+02
        1        2        2     -0.9130      2.3161       44.8121001120    0.2456364487E+02
        1        2        3     -0.9130      2.3161       76.1919626197    0.8804683392E+00
        1        2        4     -0.9130      2.3161       91.5479961236    0.1804442460E+03
        1        2        5     -0.9130      2.3161       91.8083065343    0.1838213756E+03
        1        2        6     -0.9130      2.3161       99.9295623563    0.3079891080E+01
        1        3        1     -0.9130      4.1963       44.2862561472    0.6080882570E+02
        1        3        2     -0.9130      4.1963       44.8121001120    0.6733125080E+02
        1        3        3     -0.9130      4.1963       76.1919626197    0.1077606528E+01
        1        3        4     -0.9130      4.1963       91.5479961236    0.1969951377E+03
        1        3        5     -0.9130      4.1963       91.8083065343    0.2052074794E+03
        1        3        6     -0.9130      4.1963       99.9295623563    0.1105327477E+01
        1        4        1     -0.9130      4.5750       44.2862561472    0.3967790512E+00
        1        4        2     -0.9130      4.5750       44.8121001120    0.6945327207E+01
        1        4        3     -0.9130      4.5750       76.1919626197    0.9065008910E+01
        1        4        4     -0.9130      4.5750       91.5479961236    0.4189310916E+01
        1        4        5     -0.9130      4.5750       91.8083065343    0.6995249954E+00
        1        4        6     -0.9130      4.5750       99.9295623563    0.2200201234E+03
        2        1        1      2.3161     -0.9130       44.2862561472    0.3072071819E+02
        2        1        2      2.3161     -0.9130       44.8121001120    0.1531511793E+02
        2        1        3      2.3161     -0.9130       76.1919626197    0.1498737364E+01
        2        1        4      2.3161     -0.9130       91.5479961236    0.2032473186E+03
        2        1        5      2.3161     -0.9130       91.8083065343    0.1714519151E+03
        2        1        6      2.3161     -0.9130       99.9295623563    0.8981839165E+01
        2        2        1      2.3161      2.3161       44.2862561472    0.6577119230E+00
        2        2        2      2.3161      2.3161       44.8121001120    0.5736199011E+01
        2        2        3      2.3161      2.3161       76.1919626197    0.6005507775E+01
        2        2        4      2.3161      2.3161       91.5479961236    0.4830684599E+01
        2        2        5      2.3161      2.3161       91.8083065343    0.1159538048E+01
        2        2        6      2.3161      2.3161       99.9295623563    0.1460200800E+03
        2        3        1      2.3161      4.1963       44.2862561472    0.7269955888E+01
        2        3        2      2.3161      4.1963       44.8121001120    0.6022697686E+01
        2        3        3      2.3161      4.1963       76.1919626197    0.2862180763E+03
        2        3        4      2.3161      4.1963       91.5479961236    0.1437947846E+02
        2        3        5      2.3161      4.1963       91.8083065343    0.1281691414E+02
        2        3        6      2.3161      4.1963       99.9295623563    0.5049263041E+02
        2        4        1      2.3161      4.5750       44.2862561472    0.1133760945E+02
        2        4        2      2.3161      4.5750       44.8121001120    0.4197815288E+01
        2        4        3      2.3161      4.5750       76.1919626197    0.8852470888E+00
        2        4        4      2.3161      4.5750       91.5479961236    0.1478035382E+03
        2        4        5      2.3161      4.5750       91.8083065343    0.1569533937E+03
        2        4        6      2.3161      4.5750       99.9295623563    0.1787507249E+01
        3        1        1      4.1963     -0.9130       44.2862561472    0.3977350109E+02
        3        1        2      4.1963     -0.9130       44.8121001120    0.5346400332E+02
        3        1        3      4.1963     -0.9130       76.1919626197    0.7320147631E+00
        3        1        4      4.1963     -0.9130       91.5479961236    0.1944276153E+03
        3        1        5      4.1963     -0.9130       91.8083065343    0.2154074346E+03
        3        1        6      4.1963     -0.9130       99.9295623563    0.8941073294E+01
        3        2        1      4.1963      2.3161       44.2862561472    0.3707336924E+01
        3        2        2      4.1963      2.3161       44.8121001120    0.2018466380E+01
        3        2        3      4.1963      2.3161       76.1919626197    0.2908361213E+03
        3        2        4      4.1963      2.3161       91.5479961236    0.5810183791E+01
        3        2        5      4.1963      2.3161       91.8083065343    0.6536035247E+01
        3        2        6      4.1963      2.3161       99.9295623563    0.1665356870E+02
        3        3        1      4.1963      4.1963       44.2862561472    0.7659493133E+00
        3        3        2      4.1963      4.1963       44.8121001120    0.8563072172E+01
        3        3        3      4.1963      4.1963       76.1919626197    0.1297402984E+01
        3        3        4      4.1963      4.1963       91.5479961236    0.1670726667E+02
        3        3        5      4.1963      4.1963       91.8083065343    0.1350363044E+01
        3        3        6      4.1963      4.1963       99.9295623563    0.2931427147E+02
        3        4        1      4.1963      4.5750       44.2862561472    0.4194875862E+02
        3        4        2      4.1963      4.5750       44.8121001120    0.3813067558E+02
        3        4        3      4.1963      4.5750       76.1919626197    0.5329993780E+00
        3        4        4      4.1963      4.5750       91.5479961236    0.7674750934E+02
        3        4        5      4.1963      4.5750       91.8083065343    0.6882899852E+02
        3        4        6      4.1963      4.5750       99.9295623563    0.2145615785E+01
        4        1        1      4.5750     -0.9130       44.2862561472    0.7387483721E+01
        4        1        2      4.5750     -0.9130       44.8121001120    0.6171929983E+01
        4        1        3      4.5750     -0.9130       76.1919626197    0.9473099507E+01
        4        1        4      4.5750     -0.9130       91.5479961236    0.2411157859E+01
        4        1        5      4.5750     -0.9130       91.8083065343    0.1302410203E+02
        4        1        6      4.5750     -0.9130       99.9295623563    0.2296779690E+03
        4        2        1      4.5750      2.3161       44.2862561472    0.9117777807E+01
        4        2        2      4.5750      2.3161       44.8121001120    0.6016776944E+01
        4        2        3      4.5750      2.3161       76.1919626197    0.6343347758E+00
        4        2        4      4.5750      2.3161       91.5479961236    0.1452932089E+03
        4        2        5      4.5750      2.3161       91.8083065343    0.1689778619E+03
        4        2        6      4.5750      2.3161       99.9295623563    0.4096563503E+01
        4        3        1      4.5750      4.1963       44.2862561472    0.2304769063E+02
        4        3        2      4.5750      4.1963       44.8121001120    0.3839433401E+02
        4        3        3      4.5750      4.1963       76.1919626197    0.7059536238E-01
        4        3        4      4.5750      4.1963       91.5479961236    0.5515763138E+02
        4        3        5      4.5750      4.1963       91.8083065343    0.8195412309E+02
        4        3        6      4.5750      4.1963       99.9295623563    0.9598081267E+01
        4        4        1      4.5750      4.5750       44.2862561472    0.1499243086E+01
        4        4        2      4.5750      4.5750       44.8121001120    0.4871056389E+01
        4        4        3      4.5750      4.5750       76.1919626197    0.1948789002E+02
        4        4        4      4.5750      4.5750       91.5479961236    0.8961828540E+01
        4        4        5      4.5750      4.5750       91.8083065343    0.2643130155E+01
        4        4        6      4.5750      4.5750       99.9295623563    0.5132681073E+01
     ------------------------------------------------------------------------------

      Electron-phonon vertex |g| (meV)

     iq =       3 coord.:   -0.4750000   0.0000000  -0.4750000
     ik =       1 coord.:    0.2500000  -0.5000000  -0.2500000
      ibnd     jbnd     imode   enk[eV]    enk+q[eV]  omega(q)[meV]   |g|[meV]
     ------------------------------------------------------------------------------
        1        1        1     -0.9130     -0.9081       44.1910304561    0.4605400505E+00
        1        1        2     -0.9130     -0.9081       44.6982395904    0.5772591153E+01
        1        1        3     -0.9130     -0.9081       75.7688680001    0.2592162427E+03
        1        1        4     -0.9130     -0.9081       91.5655335885    0.1259272966E+02
        1        1        5     -0.9130     -0.9081       91.8158931259    0.8056470166E+00
        1        1        6     -0.9130     -0.9081      100.1547163639    0.4698421185E+02
        1        2        1     -0.9130      2.2804       44.1910304561    0.2506522373E+02
        1        2        2     -0.9130      2.2804       44.6982395904    0.2832757915E+02
        1        2        3     -0.9130      2.2804       75.7688680001    0.7749819756E+00
        1        2        4     -0.9130      2.2804       91.5655335885    0.1808050717E+03
        1        2        5     -0.9130      2.2804       91.8158931259    0.1840415513E+03
        1        2        6     -0.9130      2.2804      100.1547163639    0.2859342814E+01
        1        3        1     -0.9130      4.2589       44.1910304561    0.6035359712E+02
        1        3        2     -0.9130      4.2589       44.6982395904    0.6640237237E+02
        1        3        3     -0.9130      4.2589       75.7688680001    0.9262466021E+00
        1        3        4     -0.9130      4.2589       91.5655335885    0.1967166342E+03
        1        3        5     -0.9130      4.2589       91.8158931259    0.2044609064E+03
        1        3        6     -0.9130      4.2589      100.1547163639    0.1405696819E+01
        1        4        1     -0.9130      4.6031       44.1910304561    0.4032138856E+00
        1        4        2     -0.9130      4.6031       44.6982395904    0.6829841118E+01
        1        4        3     -0.9130      4.6031       75.7688680001    0.2330775621E+02
        1        4        4     -0.9130      4.6031       91.5655335885    0.4202260730E+01
        1        4        5     -0.9130      4.6031       91.8158931259    0.7053856604E+00
        1        4        6     -0.9130      4.6031      100.1547163639    0.2197786174E+03
        2        1        1      2.3161     -0.9081       44.1910304561    0.3123324445E+02
        2        1        2      2.3161     -0.9081       44.6982395904    0.1758432345E+02
        2        1        3      2.3161     -0.9081       75.7688680001    0.2200327342E+01
        2        1        4      2.3161     -0.9081       91.5655335885    0.2026202323E+03
        2        1        5      2.3161     -0.9081       91.8158931259    0.1719399589E+03
        2        1        6      2.3161     -0.9081      100.1547163639    0.8662891591E+01
        2        2        1      2.3161      2.2804       44.1910304561    0.9687221011E+00
        2        2        2      2.3161      2.2804       44.6982395904    0.5589184096E+01
        2        2        3      2.3161      2.2804       75.7688680001    0.5890047612E+02
        2        2        4      2.3161      2.2804       91.5655335885    0.5166638989E+01
        2        2        5      2.3161      2.2804       91.8158931259    0.1694643563E+01
        2        2        6      2.3161      2.2804      100.1547163639    0.1366192898E+03
        2        3        1      2.3161      4.2589       44.1910304561    0.7087324652E+01
        2        3        2      2.3161      4.2589       44.6982395904    0.5980404248E+01
        2        3        3      2.3161      4.2589       75.7688680001    0.2766666914E+03
        2        3        4      2.3161      4.2589       91.5655335885    0.1366311691E+02
        2        3        5      2.3161      4.2589       91.8158931259    0.1239831466E+02
        2        3        6      2.3161      4.2589      100.1547163639    0.8606683120E+02
        2        4        1      2.3161      4.6031       44.1910304561    0.1258325264E+02
        2        4        2      2.3161      4.6031       44.6982395904    0.8631037533E+01
        2        4        3      2.3161      4.6031       75.7688680001    0.9743286014E+00
        2        4        4      2.3161      4.6031       91.5655335885    0.1482857182E+03
        2        4        5      2.3161      4.6031       91.8158931259    0.1570503802E+03
        2        4        6      2.3161      4.6031      100.1547163639    0.2153982012E+01
        3        1        1      4.1963     -0.9081       44.1910304561    0.4204467730E+02
        3        1        2      4.1963     -0.9081       44.6982395904    0.5444529516E+02
        3        1        3      4.1963     -0.9081       75.7688680001    0.9062662765E+00
        3        1        4      4.1963     -0.9081       91.5655335885    0.1944608655E+03
        3        1        5      4.1963     -0.9081       91.8158931259    0.2148503296E+03
        3        1        6      4.1963     -0.9081      100.1547163639    0.8562630807E+01
        3        2        1      4.1963      2.2804       44.1910304561    0.3610041663E+01
        3        2        2      4.1963      2.2804       44.6982395904    0.2197084159E+01
        3        2        3      4.1963      2.2804       75.7688680001    0.2857346839E+03
        3        2        4      4.1963      2.2804       91.5655335885    0.5667659497E+01
        3        2        5      4.1963      2.2804       91.8158931259    0.6315286128E+01
        3        2        6      4.1963      2.2804      100.1547163639    0.4258188642E+02
        3        3        1      4.1963      4.2589       44.1910304561    0.8037726886E+00
        3        3        2      4.1963      4.2589       44.6982395904    0.8352288653E+01
        3        3        3      4.1963      4.2589       75.7688680001    0.3368473893E+02
        3        3        4      4.1963      4.2589       91.5655335885    0.1618416999E+02
        3        3        5      4.1963      4.2589       91.8158931259    0.1406083087E+01
        3        3        6      4.1963      4.2589      100.1547163639    0.3445967659E+02
        3        4        1      4.1963      4.6031       44.1910304561    0.4243064726E+02
        3        4        2      4.1963      4.6031       44.6982395904    0.3937842308E+02
        3        4        3      4.1963      4.6031       75.7688680001    0.6542057958E+00
        3        4        4      4.1963      4.6031       91.5655335885    0.7590446489E+02
        3        4        5      4.1963      4.6031       91.8158931259    0.6846699115E+02
        3        4        6      4.1963      4.6031      100.1547163639    0.2095508604E+01
        4        1        1      4.5750     -0.9081       44.1910304561    0.7188698792E+01
        4        1        2      4.5750     -0.9081       44.6982395904    0.6071639446E+01
        4        1        3      4.5750     -0.9081       75.7688680001    0.3820122633E+02
        4        1        4      4.5750     -0.9081       91.5655335885    0.2539142831E+01
        4        1        5      4.5750     -0.9081       91.8158931259    0.1257564611E+02
        4        1        6      4.5750     -0.9081      100.1547163639    0.2270198057E+03
        4        2        1      4.5750      2.2804       44.1910304561    0.7510427226E+01
        4        2        2      4.5750      2.2804       44.6982395904    0.7412636381E+01
        4        2        3      4.5750      2.2804       75.7688680001    0.6048417411E+00
        4        2        4      4.5750      2.2804       91.5655335885    0.1438916989E+03
        4        2        5      4.5750      2.2804       91.8158931259    0.1668673462E+03
        4        2        6      4.5750      2.2804      100.1547163639    0.3819082726E+01
        4        3        1      4.5750      4.2589       44.1910304561    0.2634087925E+02
        4        3        2      4.5750      4.2589       44.6982395904    0.3962150303E+02
        4        3        3      4.5750      4.2589       75.7688680001    0.1036546234E+01
        4        3        4      4.5750      4.2589       91.5655335885    0.6042992049E+02
        4        3        5      4.5750      4.2589       91.8158931259    0.8503831680E+02
        4        3        6      4.5750      4.2589      100.1547163639    0.9314104436E+01
        4        4        1      4.5750      4.6031       44.1910304561    0.1612828655E+01
        4        4        2      4.5750      4.6031       44.6982395904    0.4789625710E+01
        4        4        3      4.5750      4.6031       75.7688680001    0.1860323165E+02
        4        4        4      4.5750      4.6031       91.5655335885    0.8726511441E+01
        4        4        5      4.5750      4.6031       91.8158931259    0.2821407069E+01
        4        4        6      4.5750      4.6031      100.1547163639    0.5389042978E+01
     ------------------------------------------------------------------------------

      Electron-phonon vertex |g| (meV)

     iq =       4 coord.:   -0.4500000   0.0000000  -0.4500000
     ik =       1 coord.:    0.2500000  -0.5000000  -0.2500000
      ibnd     jbnd     imode   enk[eV]    enk+q[eV]  omega(q)[meV]   |g|[meV]
     ------------------------------------------------------------------------------
        1        1        1     -0.9130     -0.8968       43.9013326720    0.4180341211E+00
        1        1        2     -0.9130     -0.8968       44.3549791552    0.5388691770E+01
        1        1        3     -0.9130     -0.8968       74.5500265644    0.2508811541E+03
        1        1        4     -0.9130     -0.8968       91.6188430112    0.1120235029E+02
        1        1        5     -0.9130     -0.8968       91.8408120051    0.7148352939E+00
        1        1        6     -0.9130     -0.8968      100.7835530009    0.7817846731E+02
        1        2        1     -0.9130      2.1873       43.9013326720    0.3366698544E+02
        1        2        2     -0.9130      2.1873       44.3549791552    0.3593822781E+02
        1        2        3     -0.9130      2.1873       74.5500265644    0.5090386854E+00
        1        2        4     -0.9130      2.1873       91.6188430112    0.1816373550E+03
        1        2        5     -0.9130      2.1873       91.8408120051    0.1844116998E+03
        1        2        6     -0.9130      2.1873      100.7835530009    0.2335412667E+01
        1        3        1     -0.9130      4.4304       43.9013326720    0.5960604421E+02
        1        3        2     -0.9130      4.4304       44.3549791552    0.6437692449E+02
        1        3        3     -0.9130      4.4304       74.5500265644    0.7005058682E+00
        1        3        4     -0.9130      4.4304       91.6188430112    0.1960788211E+03
        1        3        5     -0.9130      4.4304       91.8408120051    0.2025831185E+03
        1        3        6     -0.9130      4.4304      100.7835530009    0.1879530171E+01
        1        4        1     -0.9130      4.6877       43.9013326720    0.4148289940E+00
        1        4        2     -0.9130      4.6877       44.3549791552    0.6467490293E+01
        1        4        3     -0.9130      4.6877       74.5500265644    0.4215597209E+02
        1        4        4     -0.9130      4.6877       91.6188430112    0.4162755795E+01
        1        4        5     -0.9130      4.6877       91.8408120051    0.7094094584E+00
        1        4        6     -0.9130      4.6877      100.7835530009    0.2193070256E+03
        2        1        1      2.3161     -0.8968       43.9013326720    0.3283815924E+02
        2        1        2      2.3161     -0.8968       44.3549791552    0.2303218298E+02
        2        1        3      2.3161     -0.8968       74.5500265644    0.3113069344E+01
        2        1        4      2.3161     -0.8968       91.6188430112    0.2008177499E+03
        2        1        5      2.3161     -0.8968       91.8408120051    0.1733434078E+03
        2        1        6      2.3161     -0.8968      100.7835530009    0.7744433562E+01
        2        2        1      2.3161      2.1873       43.9013326720    0.1317474903E+01
        2        2        2      2.3161      2.1873       44.3549791552    0.5172987703E+01
        2        2        3      2.3161      2.1873       74.5500265644    0.1040328334E+03
        2        2        4      2.3161      2.1873       91.6188430112    0.5474860560E+01
        2        2        5      2.3161      2.1873       91.8408120051    0.2252877169E+01
        2        2        6      2.3161      2.1873      100.7835530009    0.1140186247E+03
        2        3        1      2.3161      4.4304       43.9013326720    0.6574593634E+01
        2        3        2      2.3161      4.4304       44.3549791552    0.5794202603E+01
        2        3        3      2.3161      4.4304       74.5500265644    0.2533094848E+03
        2        3        4      2.3161      4.4304       91.6188430112    0.1187478168E+02
        2        3        5      2.3161      4.4304       91.8408120051    0.1124254082E+02
        2        3        6      2.3161      4.4304      100.7835530009    0.1370828692E+03
        2        4        1      2.3161      4.6877       43.9013326720    0.1569816006E+02
        2        4        2      2.3161      4.6877       44.3549791552    0.1533388917E+02
        2        4        3      2.3161      4.6877       74.5500265644    0.1316493431E+01
        2        4        4      2.3161      4.6877       91.6188430112    0.1495904590E+03
        2        4        5      2.3161      4.6877       91.8408120051    0.1572719540E+03
        2        4        6      2.3161      4.6877      100.7835530009    0.2797162696E+01
        3        1        1      4.1963     -0.8968       43.9013326720    0.4789127274E+02
        3        1        2      4.1963     -0.8968       44.3549791552    0.5714822395E+02
        3        1        3      4.1963     -0.8968       74.5500265644    0.1209619736E+01
        3        1        4      4.1963     -0.8968       91.6188430112    0.1945441061E+03
        3        1        5      4.1963     -0.8968       91.8408120051    0.2131948869E+03
        3        1        6      4.1963     -0.8968      100.7835530009    0.7535949404E+01
        3        2        1      4.1963      2.1873       43.9013326720    0.3333532446E+01
        3        2        2      4.1963      2.1873       44.3549791552    0.2446032191E+01
        3        2        3      4.1963      2.1873       74.5500265644    0.2733043725E+03
        3        2        4      4.1963      2.1873       91.6188430112    0.5270766159E+01
        3        2        5      4.1963      2.1873       91.8408120051    0.5700338524E+01
        3        2        6      4.1963      2.1873      100.7835530009    0.7546361428E+02
        3        3        1      4.1963      4.4304       43.9013326720    0.8305407604E+00
        3        3        2      4.1963      4.4304       44.3549791552    0.7757780821E+01
        3        3        3      4.1963      4.4304       74.5500265644    0.5788293900E+02
        3        3        4      4.1963      4.4304       91.6188430112    0.1467705944E+02
        3        3        5      4.1963      4.4304       91.8408120051    0.1420218652E+01
        3        3        6      4.1963      4.4304      100.7835530009    0.4672426544E+02
        3        4        1      4.1963      4.6877       43.9013326720    0.4413076189E+02
        3        4        2      4.1963      4.6877       44.3549791552    0.4298750278E+02
        3        4        3      4.1963      4.6877       74.5500265644    0.8340473681E+00
        3        4        4      4.1963      4.6877       91.6188430112    0.7344284858E+02
        3        4        5      4.1963      4.6877       91.8408120051    0.6736546332E+02
        3        4        6      4.1963      4.6877      100.7835530009    0.1937373468E+01
        4        1        1      4.5750     -0.8968       43.9013326720    0.6598135466E+01
        4        1        2      4.5750     -0.8968       44.3549791552    0.5756671894E+01
        4        1        3      4.5750     -0.8968       74.5500265644    0.7133191619E+02
        4        1        4      4.5750     -0.8968       91.6188430112    0.2750916800E+01
        4        1        5      4.5750     -0.8968       91.8408120051    0.1128279679E+02
        4        1        6      4.5750     -0.8968      100.7835530009    0.2199382681E+03
        4        2        1      4.5750      2.1873       43.9013326720    0.5661342687E+01
        4        2        2      4.5750      2.1873       44.3549791552    0.1102704568E+02
        4        2        3      4.5750      2.1873       74.5500265644    0.4922210051E+00
        4        2        4      4.5750      2.1873       91.6188430112    0.1408459932E+03
        4        2        5      4.5750      2.1873       91.8408120051    0.1617035232E+03
        4        2        6      4.5750      2.1873      100.7835530009    0.3097180618E+01
        4        3        1      4.5750      4.4304       43.9013326720    0.3364065960E+02
        4        3        2      4.5750      4.4304       44.3549791552    0.4299094852E+02
        4        3        3      4.5750      4.4304       74.5500265644    0.1895409771E+01
        4        3        4      4.5750      4.4304       91.6188430112    0.7137105246E+02
        4        3        5      4.5750      4.4304       91.8408120051    0.9142790638E+02
        4        3        6      4.5750      4.4304      100.7835530009    0.8504194558E+01
        4        4        1      4.5750      4.6877       43.9013326720    0.1847243540E+01
        4        4        2      4.5750      4.6877       44.3549791552    0.4531408761E+01
        4        4        3      4.5750      4.6877       74.5500265644    0.1602400582E+02
        4        4        4      4.5750      4.6877       91.6188430112    0.8024794975E+01
        4        4        5      4.5750      4.6877       91.8408120051    0.3158785206E+01
        4        4        6      4.5750      4.6877      100.7835530009    0.6650059611E+01
     ------------------------------------------------------------------------------

      Electron-phonon vertex |g| (meV)

     iq =       5 coord.:   -0.4250000   0.0000000  -0.4250000
     ik =       1 coord.:    0.2500000  -0.5000000  -0.2500000
      ibnd     jbnd     imode   enk[eV]    enk+q[eV]  omega(q)[meV]   |g|[meV]
     ------------------------------------------------------------------------------
        1        1        1     -0.9130     -0.8874       43.4058746735    0.3509524975E+00
        1        1        2     -0.9130     -0.8874       43.7776726803    0.4735824756E+01
        1        1        3     -0.9130     -0.8874       72.6562812572    0.2395960784E+03
        1        1        4     -0.9130     -0.8874       91.7097979232    0.9193818783E+01
        1        1        5     -0.9130     -0.8874       91.8890303924    0.5787466626E+00
        1        1        6     -0.9130     -0.8874      101.7063477173    0.1053705328E+03
        1        2        1     -0.9130      2.0643       43.4058746735    0.4211872391E+02
        1        2        2     -0.9130      2.0643       43.7776726803    0.4358957888E+02
        1        2        3     -0.9130      2.0643       72.6562812572    0.2855470244E+00
        1        2        4     -0.9130      2.0643       91.7097979232    0.1825672754E+03
        1        2        5     -0.9130      2.0643       91.8890303924    0.1845823998E+03
        1        2        6     -0.9130      2.0643      101.7063477173    0.1754331444E+01
        1        3        1     -0.9130      4.6754       43.4058746735    0.5944265000E+02
        1        3        2     -0.9130      4.6754       43.7776726803    0.6252546425E+02
        1        3        3     -0.9130      4.6754       72.6562812572    0.8363171107E+00
        1        3        4     -0.9130      4.6754       91.7097979232    0.1953467334E+03
        1        3        5     -0.9130      4.6754       91.8890303924    0.2001795335E+03
        1        3        6     -0.9130      4.6754      101.7063477173    0.2143659197E+01
        1        4        1     -0.9130      4.8285       43.4058746735    0.4131038739E+00
        1        4        2     -0.9130      4.8285       43.7776726803    0.5815035399E+01
        1        4        3     -0.9130      4.8285       72.6562812572    0.5921736349E+02
        1        4        4     -0.9130      4.8285       91.7097979232    0.3917029627E+01
        1        4        5     -0.9130      4.8285       91.8890303924    0.6813572337E+00
        1        4        6     -0.9130      4.8285      101.7063477173    0.2189536138E+03
        2        1        1      2.3161     -0.8874       43.4058746735    0.3567679376E+02
        2        1        2      2.3161     -0.8874       43.7776726803    0.2985007897E+02
        2        1        3      2.3161     -0.8874       72.6562812572    0.3440172175E+01
        2        1        4      2.3161     -0.8874       91.7097979232    0.1980673211E+03
        2        1        5      2.3161     -0.8874       91.8890303924    0.1754928583E+03
        2        1        6      2.3161     -0.8874      101.7063477173    0.6346662017E+01
        2        2        1      2.3161      2.0643       43.4058746735    0.1383626299E+01
        2        2        2      2.3161      2.0643       43.7776726803    0.4521669243E+01
        2        2        3      2.3161      2.0643       72.6562812572    0.1335264701E+03
        2        2        4      2.3161      2.0643       91.7097979232    0.5109214404E+01
        2        2        5      2.3161      2.0643       91.8890303924    0.2281699848E+01
        2        2        6      2.3161      2.0643      101.7063477173    0.8768559194E+02
        2        3        1      2.3161      4.6754       43.4058746735    0.5769489334E+01
        2        3        2      2.3161      4.6754       43.7776726803    0.5345092444E+01
        2        3        3      2.3161      4.6754       72.6562812572    0.2252444117E+03
        2        3        4      2.3161      4.6754       91.7097979232    0.9612029991E+01
        2        3        5      2.3161      4.6754       91.8890303924    0.9514299979E+01
        2        3        6      2.3161      4.6754      101.7063477173    0.1773228969E+03
        2        4        1      2.3161      4.8285       43.4058746735    0.1971987054E+02
        2        4        2      2.3161      4.8285       43.7776726803    0.2168927659E+02
        2        4        3      2.3161      4.8285       72.6562812572    0.1761007878E+01
        2        4        4      2.3161      4.8285       91.7097979232    0.1513190500E+03
        2        4        5      2.3161      4.8285       91.8890303924    0.1574201340E+03
        2        4        6      2.3161      4.8285      101.7063477173    0.3177723757E+01
        3        1        1      4.1963     -0.8874       43.4058746735    0.5542393626E+02
        3        1        2      4.1963     -0.8874       43.7776726803    0.6101738317E+02
        3        1        3      4.1963     -0.8874       72.6562812572    0.1392640107E+01
        3        1        4      4.1963     -0.8874       91.7097979232    0.1946437887E+03
        3        1        5      4.1963     -0.8874       91.8890303924    0.2105038418E+03
        3        1        6      4.1963     -0.8874      101.7063477173    0.6092033822E+01
        3        2        1      4.1963      2.0643       43.4058746735    0.2896171992E+01
        3        2        2      4.1963      2.0643       43.7776726803    0.2455559433E+01
        3        2        3      4.1963      2.0643       72.6562812572    0.2583361742E+03
        3        2        4      4.1963      2.0643       91.7097979232    0.4647160202E+01
        3        2        5      4.1963      2.0643       91.8890303924    0.4776001484E+01
        3        2        6      4.1963      2.0643      101.7063477173    0.1028459348E+03
        3        3        1      4.1963      4.6754       43.4058746735    0.7603934131E+00
        3        3        2      4.1963      4.6754       43.7776726803    0.6816107380E+01
        3        3        3      4.1963      4.6754       72.6562812572    0.7125986078E+02
        3        3        4      4.1963      4.6754       91.7097979232    0.1234563183E+02
        3        3        5      4.1963      4.6754       91.8890303924    0.1253964711E+01
        3        3        6      4.1963      4.6754      101.7063477173    0.6084517600E+02
        3        4        1      4.1963      4.8285       43.4058746735    0.4760039385E+02
        3        4        2      4.1963      4.8285       43.7776726803    0.4856706946E+02
        3        4        3      4.1963      4.8285       72.6562812572    0.8996284180E+00
        3        4        4      4.1963      4.8285       91.7097979232    0.6954998871E+02
        3        4        5      4.1963      4.8285       91.8890303924    0.6545041881E+02
        3        4        6      4.1963      4.8285      101.7063477173    0.1663582614E+01
        4        1        1      4.5750     -0.8874       43.4058746735    0.5637725826E+01
        4        1        2      4.5750     -0.8874       43.7776726803    0.5187317633E+01
        4        1        3      4.5750     -0.8874       72.6562812572    0.9987017691E+02
        4        1        4      4.5750     -0.8874       91.7097979232    0.2775989152E+01
        4        1        5      4.5750     -0.8874       91.8890303924    0.9297027548E+01
        4        1        6      4.5750     -0.8874      101.7063477173    0.2103377305E+03
        4        2        1      4.5750      2.0643       43.4058746735    0.1014859946E+02
[...]
        1        1        2     -0.9130     -3.0651       32.2879843547    0.1188386969E+02
        1        1        3     -0.9130     -3.0651       72.6866701105    0.2586074208E+03
        1        1        4     -0.9130     -3.0651       92.3126309250    0.1203829679E+02
        1        1        5     -0.9130     -3.0651       92.4409094933    0.9354385295E+02
        1        1        6     -0.9130     -3.0651      100.2655275227    0.9932892634E+02
        1        2        1     -0.9130      3.1958       31.9223273915    0.5088284890E+02
        1        2        2     -0.9130      3.1958       32.2879843547    0.2109629605E+02
        1        2        3     -0.9130      3.1958       72.6866701105    0.1139996047E+03
        1        2        4     -0.9130      3.1958       92.3126309250    0.8010148978E+02
        1        2        5     -0.9130      3.1958       92.4409094933    0.2155345216E+03
        1        2        6     -0.9130      3.1958      100.2655275227    0.5055358506E+02
        1        3        1     -0.9130      5.1199       31.9223273915    0.4416962347E+02
        1        3        2     -0.9130      5.1199       32.2879843547    0.6206507621E+02
        1        3        3     -0.9130      5.1199       72.6866701105    0.7175306304E+02
        1        3        4     -0.9130      5.1199       92.3126309250    0.2126625259E+03
        1        3        5     -0.9130      5.1199       92.4409094933    0.8457953337E+02
        1        3        6     -0.9130      5.1199      100.2655275227    0.1217724405E+03
        1        4        1     -0.9130      7.9972       31.9223273915    0.3369019833E+02
        1        4        2     -0.9130      7.9972       32.2879843547    0.3969012314E+02
        1        4        3     -0.9130      7.9972       72.6866701105    0.1125073119E+03
        1        4        4     -0.9130      7.9972       92.3126309250    0.1440089015E+03
        1        4        5     -0.9130      7.9972       92.4409094933    0.1057074189E+02
        1        4        6     -0.9130      7.9972      100.2655275227    0.1458685752E+03
        2        1        1      2.3161     -3.0651       31.9223273915    0.2258227176E+02
        2        1        2      2.3161     -3.0651       32.2879843547    0.3928841108E+02
        2        1        3      2.3161     -3.0651       72.6866701105    0.3958809038E+02
        2        1        4      2.3161     -3.0651       92.3126309250    0.8417437535E+02
        2        1        5      2.3161     -3.0651       92.4409094933    0.1625463691E+03
        2        1        6      2.3161     -3.0651      100.2655275227    0.1481264485E+03
        2        2        1      2.3161      3.1958       31.9223273915    0.7087664767E+02
        2        2        2      2.3161      3.1958       32.2879843547    0.1360157857E+02
        2        2        3      2.3161      3.1958       72.6866701105    0.2001475288E+03
        2        2        4      2.3161      3.1958       92.3126309250    0.1291475023E+03
        2        2        5      2.3161      3.1958       92.4409094933    0.9317595819E+02
        2        2        6      2.3161      3.1958      100.2655275227    0.5019813714E+02
        2        3        1      2.3161      5.1199       31.9223273915    0.2762388330E+02
        2        3        2      2.3161      5.1199       32.2879843547    0.3030198144E+01
        2        3        3      2.3161      5.1199       72.6866701105    0.4054417612E+02
        2        3        4      2.3161      5.1199       92.3126309250    0.7629778568E+02
        2        3        5      2.3161      5.1199       92.4409094933    0.1048445052E+03
        2        3        6      2.3161      5.1199      100.2655275227    0.1109880851E+03
        2        4        1      2.3161      7.9972       31.9223273915    0.5146063701E+02
        2        4        2      2.3161      7.9972       32.2879843547    0.2560117458E+02
        2        4        3      2.3161      7.9972       72.6866701105    0.1690876361E+03
        2        4        4      2.3161      7.9972       92.3126309250    0.6614231761E+02
        2        4        5      2.3161      7.9972       92.4409094933    0.1897180066E+02
        2        4        6      2.3161      7.9972      100.2655275227    0.6974553773E+02
        3        1        1      4.1963     -3.0651       31.9223273915    0.7575357834E+02
        3        1        2      4.1963     -3.0651       32.2879843547    0.2689328937E+02
        3        1        3      4.1963     -3.0651       72.6866701105    0.1884317813E+03
        3        1        4      4.1963     -3.0651       92.3126309250    0.1287664760E+03
        3        1        5      4.1963     -3.0651       92.4409094933    0.1467033315E+03
        3        1        6      4.1963     -3.0651      100.2655275227    0.1256054057E+03
        3        2        1      4.1963      3.1958       31.9223273915    0.3658417685E+02
        3        2        2      4.1963      3.1958       32.2879843547    0.6775157028E+02
        3        2        3      4.1963      3.1958       72.6866701105    0.1365479327E+03
        3        2        4      4.1963      3.1958       92.3126309250    0.1594844392E+02
        3        2        5      4.1963      3.1958       92.4409094933    0.1023988703E+03
        3        2        6      4.1963      3.1958      100.2655275227    0.1108463357E+03
        3        3        1      4.1963      5.1199       31.9223273915    0.2265047706E+02
        3        3        2      4.1963      5.1199       32.2879843547    0.4422116021E+02
        3        3        3      4.1963      5.1199       72.6866701105    0.1203161978E+03
        3        3        4      4.1963      5.1199       92.3126309250    0.7071069700E+02
        3        3        5      4.1963      5.1199       92.4409094933    0.3162290352E+02
        3        3        6      4.1963      5.1199      100.2655275227    0.5665566657E+02
        3        4        1      4.1963      7.9972       31.9223273915    0.5205253923E+02
        3        4        2      4.1963      7.9972       32.2879843547    0.3768924185E+01
        3        4        3      4.1963      7.9972       72.6866701105    0.1542023759E+03
        3        4        4      4.1963      7.9972       92.3126309250    0.3586478183E+02
        3        4        5      4.1963      7.9972       92.4409094933    0.4659681297E+02
        3        4        6      4.1963      7.9972      100.2655275227    0.4114974320E+02
        4        1        1      4.5750     -3.0651       31.9223273915    0.4718706681E+02
        4        1        2      4.5750     -3.0651       32.2879843547    0.5153936010E+02
        4        1        3      4.5750     -3.0651       72.6866701105    0.1205985816E+03
        4        1        4      4.5750     -3.0651       92.3126309250    0.1744913889E+03
        4        1        5      4.5750     -3.0651       92.4409094933    0.3209421046E+02
        4        1        6      4.5750     -3.0651      100.2655275227    0.1139892654E+03
        4        2        1      4.5750      3.1958       31.9223273915    0.2418427576E+02
        4        2        2      4.5750      3.1958       32.2879843547    0.4914561221E+02
        4        2        3      4.5750      3.1958       72.6866701105    0.1359721958E+03
        4        2        4      4.5750      3.1958       92.3126309250    0.8021550641E+02
        4        2        5      4.5750      3.1958       92.4409094933    0.8419253724E+02
        4        2        6      4.5750      3.1958      100.2655275227    0.7879703552E+01
        4        3        1      4.5750      5.1199       31.9223273915    0.3104560621E+02
        4        3        2      4.5750      5.1199       32.2879843547    0.8498998058E+02
        4        3        3      4.5750      5.1199       72.6866701105    0.1751217580E+03
        4        3        4      4.5750      5.1199       92.3126309250    0.3491575937E+02
        4        3        5      4.5750      5.1199       92.4409094933    0.5995636439E+02
        4        3        6      4.5750      5.1199      100.2655275227    0.1143443307E+03
        4        4        1      4.5750      7.9972       31.9223273915    0.5187062442E+02
        4        4        2      4.5750      7.9972       32.2879843547    0.3110257896E+01
        4        4        3      4.5750      7.9972       72.6866701105    0.5762209667E+02
        4        4        4      4.5750      7.9972       92.3126309250    0.6868041945E+02
        4        4        5      4.5750      7.9972       92.4409094933    0.1076684363E+03
        4        4        6      4.5750      7.9972      100.2655275227    0.6112317468E+02
     ------------------------------------------------------------------------------

      Electron-phonon vertex |g| (meV)

     iq =      41 coord.:    0.4750000   0.4750000   0.4750000
     ik =       1 coord.:    0.2500000  -0.5000000  -0.2500000
      ibnd     jbnd     imode   enk[eV]    enk+q[eV]  omega(q)[meV]   |g|[meV]
     ------------------------------------------------------------------------------
        1        1        1     -0.9130     -3.1038       32.1775440557    0.3246410498E+02
        1        1        2     -0.9130     -3.1038       32.5788696301    0.1232422985E+02
        1        1        3     -0.9130     -3.1038       73.7118229102    0.2676135308E+03
        1        1        4     -0.9130     -3.1038       92.2352680717    0.1127607756E+02
        1        1        5     -0.9130     -3.1038       92.3777650807    0.9402309297E+02
        1        1        6     -0.9130     -3.1038       99.6776158078    0.7213475457E+02
        1        2        1     -0.9130      3.2902       32.1775440557    0.4867162456E+02
        1        2        2     -0.9130      3.2902       32.5788696301    0.1119968890E+02
        1        2        3     -0.9130      3.2902       73.7118229102    0.1106398124E+03
        1        2        4     -0.9130      3.2902       92.2352680717    0.6986114142E+02
        1        2        5     -0.9130      3.2902       92.3777650807    0.2213689558E+03
        1        2        6     -0.9130      3.2902       99.6776158078    0.5672350080E+02
        1        3        1     -0.9130      4.9886       32.1775440557    0.4077400746E+02
        1        3        2     -0.9130      4.9886       32.5788696301    0.6071665475E+02
        1        3        3     -0.9130      4.9886       73.7118229102    0.7896735556E+02
        1        3        4     -0.9130      4.9886       92.2352680717    0.2149064867E+03
        1        3        5     -0.9130      4.9886       92.3777650807    0.6789252206E+02
        1        3        6     -0.9130      4.9886       99.6776158078    0.1197354055E+03
        1        4        1     -0.9130      8.1090       32.1775440557    0.3546000224E+02
        1        4        2     -0.9130      8.1090       32.5788696301    0.3811966567E+02
        1        4        3     -0.9130      8.1090       73.7118229102    0.1054463042E+03
        1        4        4     -0.9130      8.1090       92.2352680717    0.1464404816E+03
        1        4        5     -0.9130      8.1090       92.3777650807    0.7135914723E+01
        1        4        6     -0.9130      8.1090       99.6776158078    0.1475564134E+03
        2        1        1      2.3161     -3.1038       32.1775440557    0.1949103552E+02
        2        1        2      2.3161     -3.1038       32.5788696301    0.3908516645E+02
        2        1        3      2.3161     -3.1038       73.7118229102    0.2219263591E+02
        2        1        4      2.3161     -3.1038       92.2352680717    0.8426157315E+02
        2        1        5      2.3161     -3.1038       92.3777650807    0.1628620298E+03
        2        1        6      2.3161     -3.1038       99.6776158078    0.1521405556E+03
        2        2        1      2.3161      3.2902       32.1775440557    0.7464121891E+02
        2        2        2      2.3161      3.2902       32.5788696301    0.8216142823E+01
        2        2        3      2.3161      3.2902       73.7118229102    0.2072695716E+03
        2        2        4      2.3161      3.2902       92.2352680717    0.1342035641E+03
        2        2        5      2.3161      3.2902       92.3777650807    0.9254722304E+02
        2        2        6      2.3161      3.2902       99.6776158078    0.4924049078E+02
        2        3        1      2.3161      4.9886       32.1775440557    0.1527110568E+02
        2        3        2      2.3161      4.9886       32.5788696301    0.3230569571E+01
        2        3        3      2.3161      4.9886       73.7118229102    0.3890818176E+02
        2        3        4      2.3161      4.9886       92.2352680717    0.6762551122E+02
        2        3        5      2.3161      4.9886       92.3777650807    0.1057373220E+03
        2        3        6      2.3161      4.9886       99.6776158078    0.1036387584E+03
        2        4        1      2.3161      8.1090       32.1775440557    0.5099616801E+02
        2        4        2      2.3161      8.1090       32.5788696301    0.2645261665E+02
        2        4        3      2.3161      8.1090       73.7118229102    0.1723276813E+03
        2        4        4      2.3161      8.1090       92.2352680717    0.6502000092E+02
        2        4        5      2.3161      8.1090       92.3777650807    0.1795610879E+02
        2        4        6      2.3161      8.1090       99.6776158078    0.5378962228E+02
        3        1        1      4.1963     -3.1038       32.1775440557    0.7427265300E+02
        3        1        2      4.1963     -3.1038       32.5788696301    0.2520044572E+02
        3        1        3      4.1963     -3.1038       73.7118229102    0.1907508724E+03
        3        1        4      4.1963     -3.1038       92.2352680717    0.1287036338E+03
        3        1        5      4.1963     -3.1038       92.3777650807    0.1462521299E+03
        3        1        6      4.1963     -3.1038       99.6776158078    0.1249228331E+03
        3        2        1      4.1963      3.2902       32.1775440557    0.3952774776E+02
        3        2        2      4.1963      3.2902       32.5788696301    0.6916202237E+02
        3        2        3      4.1963      3.2902       73.7118229102    0.1366933016E+03
        3        2        4      4.1963      3.2902       92.2352680717    0.9482679235E+01
        3        2        5      4.1963      3.2902       92.3777650807    0.1053015421E+03
        3        2        6      4.1963      3.2902       99.6776158078    0.1145967707E+03
        3        3        1      4.1963      4.9886       32.1775440557    0.1244087681E+02
        3        3        2      4.1963      4.9886       32.5788696301    0.4199685535E+02
        3        3        3      4.1963      4.9886       73.7118229102    0.1238374588E+03
        3        3        4      4.1963      4.9886       92.2352680717    0.7174529202E+02
        3        3        5      4.1963      4.9886       92.3777650807    0.2129164349E+02
        3        3        6      4.1963      4.9886       99.6776158078    0.3770203473E+02
        3        4        1      4.1963      8.1090       32.1775440557    0.5017046151E+02
        3        4        2      4.1963      8.1090       32.5788696301    0.2525613738E+01
        3        4        3      4.1963      8.1090       73.7118229102    0.1579781735E+03
        3        4        4      4.1963      8.1090       92.2352680717    0.3426301074E+02
        3        4        5      4.1963      8.1090       92.3777650807    0.4660145910E+02
        3        4        6      4.1963      8.1090       99.6776158078    0.3225947150E+02
        4        1        1      4.5750     -3.1038       32.1775440557    0.4745003245E+02
        4        1        2      4.5750     -3.1038       32.5788696301    0.4883852189E+02
        4        1        3      4.5750     -3.1038       73.7118229102    0.1186409252E+03
        4        1        4      4.5750     -3.1038       92.2352680717    0.1743336816E+03
        4        1        5      4.5750     -3.1038       92.3777650807    0.3126030487E+02
        4        1        6      4.5750     -3.1038       99.6776158078    0.1144483805E+03
        4        2        1      4.5750      3.2902       32.1775440557    0.2805002272E+02
        4        2        2      4.5750      3.2902       32.5788696301    0.4173180425E+02
        4        2        3      4.5750      3.2902       73.7118229102    0.1279464899E+03
        4        2        4      4.5750      3.2902       92.2352680717    0.8259003222E+02
        4        2        5      4.5750      3.2902       92.3777650807    0.8552943220E+02
        4        2        6      4.5750      3.2902       99.6776158078    0.2307290205E+02
        4        3        1      4.5750      4.9886       32.1775440557    0.2680398918E+02
        4        3        2      4.5750      4.9886       32.5788696301    0.8926214311E+02
        4        3        3      4.5750      4.9886       73.7118229102    0.1885769769E+03
        4        3        4      4.5750      4.9886       92.2352680717    0.2489847192E+02
        4        3        5      4.5750      4.9886       92.3777650807    0.5806701671E+02
        4        3        6      4.5750      4.9886       99.6776158078    0.9714037933E+02
        4        4        1      4.5750      8.1090       32.1775440557    0.4874885869E+02
        4        4        2      4.5750      8.1090       32.5788696301    0.1872661926E+01
        4        4        3      4.5750      8.1090       73.7118229102    0.5033592799E+02
        4        4        4      4.5750      8.1090       92.2352680717    0.6842926625E+02
        4        4        5      4.5750      8.1090       92.3777650807    0.1078711566E+03
        4        4        6      4.5750      8.1090       99.6776158078    0.6614326660E+02
     ------------------------------------------------------------------------------

System file does not exist
     ===================================================================
     Memory usage:  VmHWM =         0Mb
                   VmPeak =         0Mb
     ===================================================================


     Unfolding on the coarse grid
     elphon_wrap  :     14.91s CPU     15.62s WALL (       1 calls)

     INITIALIZATION: 

     init_vloc    :      0.00s CPU      0.00s WALL (       1 calls)
     init_us_1    :      0.02s CPU      0.02s WALL (       2 calls)



     Electron-Phonon interpolation
     ephwann      :      0.57s CPU      0.70s WALL (       1 calls)
     ep-interp    :      0.05s CPU      0.08s WALL (      41 calls)

     Ham: step 1  :      0.00s CPU      0.00s WALL (       1 calls)
     Ham: step 2  :      0.00s CPU      0.00s WALL (       1 calls)
     ep: step 1   :      0.00s CPU      0.00s WALL (     162 calls)
     ep: step 2   :      0.40s CPU      0.53s WALL (       1 calls)
     DynW2B       :      0.00s CPU      0.00s WALL (      41 calls)
     HamW2B       :      0.00s CPU      0.00s WALL (     126 calls)
     ephW2Bp      :      0.03s CPU      0.06s WALL (      41 calls)
     ephW2B       :      0.00s CPU      0.00s WALL (      41 calls)
     vmewan2bloch :      0.00s CPU      0.00s WALL (      82 calls)
     vmewan2bloch :      0.00s CPU      0.00s WALL (      82 calls)


     Total program execution
     EPW          :     19.03s CPU     20.04s WALL

     ===============================================================================
     The functionality-dependent EPW.bib file was created with suggested citations. 
     Please consider citing the papers listed in EPW.bib.                           
     ===============================================================================
                                                                                    
