
             +---------------------------------------------------+
             |                                                   |
             |                   WANNIER90                       |
             |                                                   |
             +---------------------------------------------------+
             |                                                   |
             |        Welcome to the Maximally-Localized         |
             |        Generalized Wannier Functions code         |
             |            http://www.wannier.org                 |
             |                                                   |
             |                                                   |
             |  Wannier90 Developer Group:                       |
             |    Giovanni Pizzi    (EPFL)                       |
             |    Valerio Vitale    (Cambridge)                  |
             |    David Vanderbilt  (Rutgers University)         |
             |    Nicola Marzari    (EPFL)                       |
             |    Ivo Souza         (Universidad del Pais Vasco) |
             |    Arash A. Mostofi  (Imperial College London)    |
             |    Jonathan R. Yates (University of Oxford)       |
             |                                                   |
             |  For the full list of Wannier90 3.x authors,      |
             |  please check the code documentation and the      |
             |  README on the GitHub page of the code            |
             |                                                   |
             |                                                   |
             |  Please cite                                      |
             |                                                   |
             |  [ref] "Wannier90 as a community code:            |
             |        new features and applications",            |
             |        G. Pizzi et al., J. Phys. Cond. Matt. 32,  |
             |        165902 (2020).                             |
             |        http://doi.org/10.1088/1361-648X/ab51ff    |
             |                                                   |
             |  in any publications arising from the use of      |
             |  this code. For the method please cite            |
             |                                                   |
             |  [ref] "Maximally Localized Generalised Wannier   |
             |         Functions for Composite Energy Bands"     |
             |         N. Marzari and D. Vanderbilt              |
             |         Phys. Rev. B 56 12847 (1997)              |
             |                                                   |
             |  [ref] "Maximally Localized Wannier Functions     |
             |         for Entangled Energy Bands"               |
             |         I. Souza, N. Marzari and D. Vanderbilt    |
             |         Phys. Rev. B 65 035109 (2001)             |
             |                                                   |
             |                                                   |
             | Copyright (c) 1996-2020                           |
             |        The Wannier90 Developer Group and          |
             |        individual contributors                    |
             |                                                   |
             |      Release: 3.1.0        5th March    2020      |
             |                                                   |
             | This program is free software; you can            |
             | redistribute it and/or modify it under the terms  |
             | of the GNU General Public License as published by |
             | the Free Software Foundation; either version 2 of |
             | the License, or (at your option) any later version|
             |                                                   |
             | This program is distributed in the hope that it   |
             | will be useful, but WITHOUT ANY WARRANTY; without |
             | even the implied warranty of MERCHANTABILITY or   |
             | FITNESS FOR A PARTICULAR PURPOSE. See the GNU     |
             | General Public License for more details.          |
             |                                                   |
             | You should have received a copy of the GNU General|
             | Public License along with this program; if not,   |
             | write to the Free Software Foundation, Inc.,      |
             | 675 Mass Ave, Cambridge, MA 02139, USA.           |
             |                                                   |
             +---------------------------------------------------+
             |    Execution started on 15Jun2021 at 22:07:28     |
             +---------------------------------------------------+
 
 ******************************************************************************
 * -> Using CODATA 2006 constant values                                       *
 *    (http://physics.nist.gov/cuu/Constants/index.html)                      *
 * -> Using Bohr value from CODATA                                            *
 ******************************************************************************
 

 Wannier90 is running in LIBRARY MODE

 Setting up k-point neighbours...


                                    ------
                                    SYSTEM
                                    ------

                              Lattice Vectors (Ang)
                    a_1    -2.179416   0.000000   2.179416
                    a_2     0.000000   2.179416   2.179416
                    a_3    -2.179416   2.179416   0.000000

                   Unit Cell Volume:      20.70383  (Ang^3)

                        Reciprocal-Space Vectors (Ang^-1)
                    b_1    -1.441483  -1.441483   1.441483
                    b_2     1.441483   1.441483   1.441483
                    b_3    -1.441483   1.441483  -1.441483
  
 *----------------------------------------------------------------------------*
 |   Site       Fractional Coordinate          Cartesian Coordinate (Ang)     |
 +----------------------------------------------------------------------------+
 | Si   1   0.00000   0.00000   0.00000   |    0.00000   0.00000   0.00000    |
 | C    1  -0.25000   0.75000  -0.25000   |    1.08971   1.08971   1.08971    |
 *----------------------------------------------------------------------------*
                                -----------
                                PROJECTIONS
                                -----------
  
 +----------------------------------------------------------------------------+
 |     Frac. Coord.   l mr  r        z-axis               x-axis          Z/a |
 +----------------------------------------------------------------------------+
 |  0.00  0.00  0.00 -3  1  1  0.000  0.000  1.000  1.000  0.000  0.000   1.0 |
 |  0.00  0.00  0.00 -3  2  1  0.000  0.000  1.000  1.000  0.000  0.000   1.0 |
 |  0.00  0.00  0.00 -3  3  1  0.000  0.000  1.000  1.000  0.000  0.000   1.0 |
 |  0.00  0.00  0.00 -3  4  1  0.000  0.000  1.000  1.000  0.000  0.000   1.0 |
 +----------------------------------------------------------------------------+
  
                                ------------
                                K-POINT GRID
                                ------------
  
             Grid size =  6 x  6 x  6      Total points =  216
  
 *----------------------------------------------------------------------------*
 | k-point      Fractional Coordinate        Cartesian Coordinate (Ang^-1)    |
 +----------------------------------------------------------------------------+
 |     1    0.00000   0.00000   0.00000   |    0.00000   0.00000   0.00000    |
 |     2    0.00000   0.00000   0.16667   |   -0.24025   0.24025  -0.24025    |
 |     3    0.00000   0.00000   0.33333   |   -0.48049   0.48049  -0.48049    |
 |     4    0.00000   0.00000   0.50000   |   -0.72074   0.72074  -0.72074    |
 |     5    0.00000   0.00000   0.66667   |   -0.96099   0.96099  -0.96099    |
 |     6    0.00000   0.00000   0.83333   |   -1.20124   1.20124  -1.20124    |
 |     7    0.00000   0.16667   0.00000   |    0.24025   0.24025   0.24025    |
 |     8    0.00000   0.16667   0.16667   |    0.00000   0.48049   0.00000    |
 |     9    0.00000   0.16667   0.33333   |   -0.24025   0.72074  -0.24025    |
 |    10    0.00000   0.16667   0.50000   |   -0.48049   0.96099  -0.48049    |
 |    11    0.00000   0.16667   0.66667   |   -0.72074   1.20124  -0.72074    |
 |    12    0.00000   0.16667   0.83333   |   -0.96099   1.44148  -0.96099    |
 |    13    0.00000   0.33333   0.00000   |    0.48049   0.48049   0.48049    |
 |    14    0.00000   0.33333   0.16667   |    0.24025   0.72074   0.24025    |
 |    15    0.00000   0.33333   0.33333   |    0.00000   0.96099   0.00000    |
 |    16    0.00000   0.33333   0.50000   |   -0.24025   1.20124  -0.24025    |
 |    17    0.00000   0.33333   0.66667   |   -0.48049   1.44148  -0.48049    |
 |    18    0.00000   0.33333   0.83333   |   -0.72074   1.68173  -0.72074    |
 |    19    0.00000   0.50000   0.00000   |    0.72074   0.72074   0.72074    |
 |    20    0.00000   0.50000   0.16667   |    0.48049   0.96099   0.48049    |
 |    21    0.00000   0.50000   0.33333   |    0.24025   1.20124   0.24025    |
 |    22    0.00000   0.50000   0.50000   |    0.00000   1.44148   0.00000    |
 |    23    0.00000   0.50000   0.66667   |   -0.24025   1.68173  -0.24025    |
 |    24    0.00000   0.50000   0.83333   |   -0.48049   1.92198  -0.48049    |
 |    25    0.00000   0.66667   0.00000   |    0.96099   0.96099   0.96099    |
 |    26    0.00000   0.66667   0.16667   |    0.72074   1.20124   0.72074    |
 |    27    0.00000   0.66667   0.33333   |    0.48049   1.44148   0.48049    |
 |    28    0.00000   0.66667   0.50000   |    0.24025   1.68173   0.24025    |
 |    29    0.00000   0.66667   0.66667   |    0.00000   1.92198   0.00000    |
 |    30    0.00000   0.66667   0.83333   |   -0.24025   2.16223  -0.24025    |
 |    31    0.00000   0.83333   0.00000   |    1.20124   1.20124   1.20124    |
 |    32    0.00000   0.83333   0.16667   |    0.96099   1.44148   0.96099    |
 |    33    0.00000   0.83333   0.33333   |    0.72074   1.68173   0.72074    |
 |    34    0.00000   0.83333   0.50000   |    0.48049   1.92198   0.48049    |
 |    35    0.00000   0.83333   0.66667   |    0.24025   2.16223   0.24025    |
 |    36    0.00000   0.83333   0.83333   |    0.00000   2.40247   0.00000    |
 |    37    0.16667   0.00000   0.00000   |   -0.24025  -0.24025   0.24025    |
 |    38    0.16667   0.00000   0.16667   |   -0.48049   0.00000   0.00000    |
 |    39    0.16667   0.00000   0.33333   |   -0.72074   0.24025  -0.24025    |
 |    40    0.16667   0.00000   0.50000   |   -0.96099   0.48049  -0.48049    |
 |    41    0.16667   0.00000   0.66667   |   -1.20124   0.72074  -0.72074    |
 |    42    0.16667   0.00000   0.83333   |   -1.44148   0.96099  -0.96099    |
 |    43    0.16667   0.16667   0.00000   |    0.00000   0.00000   0.48049    |
 |    44    0.16667   0.16667   0.16667   |   -0.24025   0.24025   0.24025    |
 |    45    0.16667   0.16667   0.33333   |   -0.48049   0.48049   0.00000    |
 |    46    0.16667   0.16667   0.50000   |   -0.72074   0.72074  -0.24025    |
 |    47    0.16667   0.16667   0.66667   |   -0.96099   0.96099  -0.48049    |
 |    48    0.16667   0.16667   0.83333   |   -1.20124   1.20124  -0.72074    |
 |    49    0.16667   0.33333   0.00000   |    0.24025   0.24025   0.72074    |
 |    50    0.16667   0.33333   0.16667   |   -0.00000   0.48049   0.48049    |
 |    51    0.16667   0.33333   0.33333   |   -0.24025   0.72074   0.24025    |
 |    52    0.16667   0.33333   0.50000   |   -0.48049   0.96099   0.00000    |
 |    53    0.16667   0.33333   0.66667   |   -0.72074   1.20124  -0.24025    |
 |    54    0.16667   0.33333   0.83333   |   -0.96099   1.44148  -0.48049    |
 |    55    0.16667   0.50000   0.00000   |    0.48049   0.48049   0.96099    |
 |    56    0.16667   0.50000   0.16667   |    0.24025   0.72074   0.72074    |
 |    57    0.16667   0.50000   0.33333   |    0.00000   0.96099   0.48049    |
 |    58    0.16667   0.50000   0.50000   |   -0.24025   1.20124   0.24025    |
 |    59    0.16667   0.50000   0.66667   |   -0.48049   1.44148   0.00000    |
 |    60    0.16667   0.50000   0.83333   |   -0.72074   1.68173  -0.24025    |
 |    61    0.16667   0.66667   0.00000   |    0.72074   0.72074   1.20124    |
 |    62    0.16667   0.66667   0.16667   |    0.48049   0.96099   0.96099    |
 |    63    0.16667   0.66667   0.33333   |    0.24025   1.20124   0.72074    |
 |    64    0.16667   0.66667   0.50000   |    0.00000   1.44148   0.48049    |
 |    65    0.16667   0.66667   0.66667   |   -0.24025   1.68173   0.24025    |
 |    66    0.16667   0.66667   0.83333   |   -0.48049   1.92198   0.00000    |
 |    67    0.16667   0.83333   0.00000   |    0.96099   0.96099   1.44148    |
 |    68    0.16667   0.83333   0.16667   |    0.72074   1.20124   1.20124    |
 |    69    0.16667   0.83333   0.33333   |    0.48049   1.44148   0.96099    |
 |    70    0.16667   0.83333   0.50000   |    0.24025   1.68173   0.72074    |
 |    71    0.16667   0.83333   0.66667   |   -0.00000   1.92198   0.48049    |
 |    72    0.16667   0.83333   0.83333   |   -0.24025   2.16223   0.24025    |
 |    73    0.33333   0.00000   0.00000   |   -0.48049  -0.48049   0.48049    |
 |    74    0.33333   0.00000   0.16667   |   -0.72074  -0.24025   0.24025    |
 |    75    0.33333   0.00000   0.33333   |   -0.96099   0.00000   0.00000    |
 |    76    0.33333   0.00000   0.50000   |   -1.20124   0.24025  -0.24025    |
 |    77    0.33333   0.00000   0.66667   |   -1.44148   0.48049  -0.48049    |
 |    78    0.33333   0.00000   0.83333   |   -1.68173   0.72074  -0.72074    |
 |    79    0.33333   0.16667   0.00000   |   -0.24025  -0.24025   0.72074    |
 |    80    0.33333   0.16667   0.16667   |   -0.48049   0.00000   0.48049    |
 |    81    0.33333   0.16667   0.33333   |   -0.72074   0.24025   0.24025    |
 |    82    0.33333   0.16667   0.50000   |   -0.96099   0.48049   0.00000    |
 |    83    0.33333   0.16667   0.66667   |   -1.20124   0.72074  -0.24025    |
 |    84    0.33333   0.16667   0.83333   |   -1.44148   0.96099  -0.48049    |
 |    85    0.33333   0.33333   0.00000   |    0.00000   0.00000   0.96099    |
 |    86    0.33333   0.33333   0.16667   |   -0.24025   0.24025   0.72074    |
 |    87    0.33333   0.33333   0.33333   |   -0.48049   0.48049   0.48049    |
 |    88    0.33333   0.33333   0.50000   |   -0.72074   0.72074   0.24025    |
 |    89    0.33333   0.33333   0.66667   |   -0.96099   0.96099  -0.00000    |
 |    90    0.33333   0.33333   0.83333   |   -1.20124   1.20124  -0.24025    |
 |    91    0.33333   0.50000   0.00000   |    0.24025   0.24025   1.20124    |
 |    92    0.33333   0.50000   0.16667   |    0.00000   0.48049   0.96099    |
 |    93    0.33333   0.50000   0.33333   |   -0.24025   0.72074   0.72074    |
 |    94    0.33333   0.50000   0.50000   |   -0.48049   0.96099   0.48049    |
 |    95    0.33333   0.50000   0.66667   |   -0.72074   1.20124   0.24025    |
 |    96    0.33333   0.50000   0.83333   |   -0.96099   1.44148   0.00000    |
 |    97    0.33333   0.66667   0.00000   |    0.48049   0.48049   1.44148    |
 |    98    0.33333   0.66667   0.16667   |    0.24025   0.72074   1.20124    |
 |    99    0.33333   0.66667   0.33333   |    0.00000   0.96099   0.96099    |
 |   100    0.33333   0.66667   0.50000   |   -0.24025   1.20124   0.72074    |
 |   101    0.33333   0.66667   0.66667   |   -0.48049   1.44148   0.48049    |
 |   102    0.33333   0.66667   0.83333   |   -0.72074   1.68173   0.24025    |
 |   103    0.33333   0.83333   0.00000   |    0.72074   0.72074   1.68173    |
 |   104    0.33333   0.83333   0.16667   |    0.48049   0.96099   1.44148    |
 |   105    0.33333   0.83333   0.33333   |    0.24025   1.20124   1.20124    |
 |   106    0.33333   0.83333   0.50000   |   -0.00000   1.44148   0.96099    |
 |   107    0.33333   0.83333   0.66667   |   -0.24025   1.68173   0.72074    |
 |   108    0.33333   0.83333   0.83333   |   -0.48049   1.92198   0.48049    |
 |   109    0.50000   0.00000   0.00000   |   -0.72074  -0.72074   0.72074    |
 |   110    0.50000   0.00000   0.16667   |   -0.96099  -0.48049   0.48049    |
 |   111    0.50000   0.00000   0.33333   |   -1.20124  -0.24025   0.24025    |
 |   112    0.50000   0.00000   0.50000   |   -1.44148   0.00000   0.00000    |
 |   113    0.50000   0.00000   0.66667   |   -1.68173   0.24025  -0.24025    |
 |   114    0.50000   0.00000   0.83333   |   -1.92198   0.48049  -0.48049    |
 |   115    0.50000   0.16667   0.00000   |   -0.48049  -0.48049   0.96099    |
 |   116    0.50000   0.16667   0.16667   |   -0.72074  -0.24025   0.72074    |
 |   117    0.50000   0.16667   0.33333   |   -0.96099   0.00000   0.48049    |
 |   118    0.50000   0.16667   0.50000   |   -1.20124   0.24025   0.24025    |
 |   119    0.50000   0.16667   0.66667   |   -1.44148   0.48049   0.00000    |
 |   120    0.50000   0.16667   0.83333   |   -1.68173   0.72074  -0.24025    |
 |   121    0.50000   0.33333   0.00000   |   -0.24025  -0.24025   1.20124    |
 |   122    0.50000   0.33333   0.16667   |   -0.48049   0.00000   0.96099    |
 |   123    0.50000   0.33333   0.33333   |   -0.72074   0.24025   0.72074    |
 |   124    0.50000   0.33333   0.50000   |   -0.96099   0.48049   0.48049    |
 |   125    0.50000   0.33333   0.66667   |   -1.20124   0.72074   0.24025    |
 |   126    0.50000   0.33333   0.83333   |   -1.44148   0.96099   0.00000    |
 |   127    0.50000   0.50000   0.00000   |    0.00000   0.00000   1.44148    |
 |   128    0.50000   0.50000   0.16667   |   -0.24025   0.24025   1.20124    |
 |   129    0.50000   0.50000   0.33333   |   -0.48049   0.48049   0.96099    |
 |   130    0.50000   0.50000   0.50000   |   -0.72074   0.72074   0.72074    |
 |   131    0.50000   0.50000   0.66667   |   -0.96099   0.96099   0.48049    |
 |   132    0.50000   0.50000   0.83333   |   -1.20124   1.20124   0.24025    |
 |   133    0.50000   0.66667   0.00000   |    0.24025   0.24025   1.68173    |
 |   134    0.50000   0.66667   0.16667   |    0.00000   0.48049   1.44148    |
 |   135    0.50000   0.66667   0.33333   |   -0.24025   0.72074   1.20124    |
 |   136    0.50000   0.66667   0.50000   |   -0.48049   0.96099   0.96099    |
 |   137    0.50000   0.66667   0.66667   |   -0.72074   1.20124   0.72074    |
 |   138    0.50000   0.66667   0.83333   |   -0.96099   1.44148   0.48049    |
 |   139    0.50000   0.83333   0.00000   |    0.48049   0.48049   1.92198    |
 |   140    0.50000   0.83333   0.16667   |    0.24025   0.72074   1.68173    |
 |   141    0.50000   0.83333   0.33333   |   -0.00000   0.96099   1.44148    |
 |   142    0.50000   0.83333   0.50000   |   -0.24025   1.20124   1.20124    |
 |   143    0.50000   0.83333   0.66667   |   -0.48049   1.44148   0.96099    |
 |   144    0.50000   0.83333   0.83333   |   -0.72074   1.68173   0.72074    |
 |   145    0.66667   0.00000   0.00000   |   -0.96099  -0.96099   0.96099    |
 |   146    0.66667   0.00000   0.16667   |   -1.20124  -0.72074   0.72074    |
 |   147    0.66667   0.00000   0.33333   |   -1.44148  -0.48049   0.48049    |
 |   148    0.66667   0.00000   0.50000   |   -1.68173  -0.24025   0.24025    |
 |   149    0.66667   0.00000   0.66667   |   -1.92198   0.00000   0.00000    |
 |   150    0.66667   0.00000   0.83333   |   -2.16223   0.24025  -0.24025    |
 |   151    0.66667   0.16667   0.00000   |   -0.72074  -0.72074   1.20124    |
 |   152    0.66667   0.16667   0.16667   |   -0.96099  -0.48049   0.96099    |
 |   153    0.66667   0.16667   0.33333   |   -1.20124  -0.24025   0.72074    |
 |   154    0.66667   0.16667   0.50000   |   -1.44148   0.00000   0.48049    |
 |   155    0.66667   0.16667   0.66667   |   -1.68173   0.24025   0.24025    |
 |   156    0.66667   0.16667   0.83333   |   -1.92198   0.48049   0.00000    |
 |   157    0.66667   0.33333   0.00000   |   -0.48049  -0.48049   1.44148    |
 |   158    0.66667   0.33333   0.16667   |   -0.72074  -0.24025   1.20124    |
 |   159    0.66667   0.33333   0.33333   |   -0.96099  -0.00000   0.96099    |
 |   160    0.66667   0.33333   0.50000   |   -1.20124   0.24025   0.72074    |
 |   161    0.66667   0.33333   0.66667   |   -1.44148   0.48049   0.48049    |
 |   162    0.66667   0.33333   0.83333   |   -1.68173   0.72074   0.24025    |
 |   163    0.66667   0.50000   0.00000   |   -0.24025  -0.24025   1.68173    |
 |   164    0.66667   0.50000   0.16667   |   -0.48049  -0.00000   1.44148    |
 |   165    0.66667   0.50000   0.33333   |   -0.72074   0.24025   1.20124    |
 |   166    0.66667   0.50000   0.50000   |   -0.96099   0.48049   0.96099    |
 |   167    0.66667   0.50000   0.66667   |   -1.20124   0.72074   0.72074    |
 |   168    0.66667   0.50000   0.83333   |   -1.44148   0.96099   0.48049    |
 |   169    0.66667   0.66667   0.00000   |    0.00000   0.00000   1.92198    |
 |   170    0.66667   0.66667   0.16667   |   -0.24025   0.24025   1.68173    |
 |   171    0.66667   0.66667   0.33333   |   -0.48049   0.48049   1.44148    |
 |   172    0.66667   0.66667   0.50000   |   -0.72074   0.72074   1.20124    |
 |   173    0.66667   0.66667   0.66667   |   -0.96099   0.96099   0.96099    |
 |   174    0.66667   0.66667   0.83333   |   -1.20124   1.20124   0.72074    |
 |   175    0.66667   0.83333   0.00000   |    0.24025   0.24025   2.16223    |
 |   176    0.66667   0.83333   0.16667   |   -0.00000   0.48049   1.92198    |
 |   177    0.66667   0.83333   0.33333   |   -0.24025   0.72074   1.68173    |
 |   178    0.66667   0.83333   0.50000   |   -0.48049   0.96099   1.44148    |
 |   179    0.66667   0.83333   0.66667   |   -0.72074   1.20124   1.20124    |
 |   180    0.66667   0.83333   0.83333   |   -0.96099   1.44148   0.96099    |
 |   181    0.83333   0.00000   0.00000   |   -1.20124  -1.20124   1.20124    |
 |   182    0.83333   0.00000   0.16667   |   -1.44148  -0.96099   0.96099    |
 |   183    0.83333   0.00000   0.33333   |   -1.68173  -0.72074   0.72074    |
 |   184    0.83333   0.00000   0.50000   |   -1.92198  -0.48049   0.48049    |
 |   185    0.83333   0.00000   0.66667   |   -2.16223  -0.24025   0.24025    |
 |   186    0.83333   0.00000   0.83333   |   -2.40247   0.00000   0.00000    |
 |   187    0.83333   0.16667   0.00000   |   -0.96099  -0.96099   1.44148    |
 |   188    0.83333   0.16667   0.16667   |   -1.20124  -0.72074   1.20124    |
 |   189    0.83333   0.16667   0.33333   |   -1.44148  -0.48049   0.96099    |
 |   190    0.83333   0.16667   0.50000   |   -1.68173  -0.24025   0.72074    |
 |   191    0.83333   0.16667   0.66667   |   -1.92198   0.00000   0.48049    |
 |   192    0.83333   0.16667   0.83333   |   -2.16223   0.24025   0.24025    |
 |   193    0.83333   0.33333   0.00000   |   -0.72074  -0.72074   1.68173    |
 |   194    0.83333   0.33333   0.16667   |   -0.96099  -0.48049   1.44148    |
 |   195    0.83333   0.33333   0.33333   |   -1.20124  -0.24025   1.20124    |
 |   196    0.83333   0.33333   0.50000   |   -1.44148   0.00000   0.96099    |
 |   197    0.83333   0.33333   0.66667   |   -1.68173   0.24025   0.72074    |
 |   198    0.83333   0.33333   0.83333   |   -1.92198   0.48049   0.48049    |
 |   199    0.83333   0.50000   0.00000   |   -0.48049  -0.48049   1.92198    |
 |   200    0.83333   0.50000   0.16667   |   -0.72074  -0.24025   1.68173    |
 |   201    0.83333   0.50000   0.33333   |   -0.96099   0.00000   1.44148    |
 |   202    0.83333   0.50000   0.50000   |   -1.20124   0.24025   1.20124    |
 |   203    0.83333   0.50000   0.66667   |   -1.44148   0.48049   0.96099    |
 |   204    0.83333   0.50000   0.83333   |   -1.68173   0.72074   0.72074    |
 |   205    0.83333   0.66667   0.00000   |   -0.24025  -0.24025   2.16223    |
 |   206    0.83333   0.66667   0.16667   |   -0.48049   0.00000   1.92198    |
 |   207    0.83333   0.66667   0.33333   |   -0.72074   0.24025   1.68173    |
 |   208    0.83333   0.66667   0.50000   |   -0.96099   0.48049   1.44148    |
 |   209    0.83333   0.66667   0.66667   |   -1.20124   0.72074   1.20124    |
 |   210    0.83333   0.66667   0.83333   |   -1.44148   0.96099   0.96099    |
 |   211    0.83333   0.83333   0.00000   |    0.00000   0.00000   2.40247    |
 |   212    0.83333   0.83333   0.16667   |   -0.24025   0.24025   2.16223    |
 |   213    0.83333   0.83333   0.33333   |   -0.48049   0.48049   1.92198    |
 |   214    0.83333   0.83333   0.50000   |   -0.72074   0.72074   1.68173    |
 |   215    0.83333   0.83333   0.66667   |   -0.96099   0.96099   1.44148    |
 |   216    0.83333   0.83333   0.83333   |   -1.20124   1.20124   1.20124    |
 *----------------------------------------------------------------------------*
  
  
 *---------------------------------- MAIN ------------------------------------*
 |  Number of Wannier Functions               :                 4             |
 |  Number of Objective Wannier Functions     :                 4             |
 |  Number of input Bloch states              :                 4             |
 |  Output verbosity (1=low, 5=high)          :                 2             |
 |  Timing Level (1=low, 5=high)              :                 1             |
 |  Optimisation (0=memory, 3=speed)          :                 3             |
 |  Length Unit                               :               Ang             |
 |  Post-processing setup (write *.nnkp)      :                 T             |
 |  Using Gamma-only branch of algorithms     :                 F             |
 *----------------------------------------------------------------------------*
 *------------------------------- WANNIERISE ---------------------------------*
 |  Total number of iterations                :               300             |
 |  Number of CG steps before reset           :                 5             |
 |  Trial step length for line search         :             2.000             |
 |  Convergence tolerence                     :         0.100E-09             |
 |  Convergence window                        :                -1             |
 |  Iterations between writing output         :                 1             |
 |  Iterations between backing up to disk     :               100             |
 |  Write r^2_nm to file                      :                 F             |
 |  Write xyz WF centres to file              :                 F             |
 |  Write on-site energies <0n|H|0n> to file  :                 F             |
 |  Use guiding centre to control phases      :                 F             |
 |  Use phases for initial projections        :                 F             |
 *----------------------------------------------------------------------------*
 *-------------------------------- PLOTTING ----------------------------------*
 |  Plotting Hamiltonian in WF basis          :                 T             |
 *----------------------------------------------------------------------------*
 Time to read parameters        0.002 (sec)

 *---------------------------------- K-MESH ----------------------------------*
 +----------------------------------------------------------------------------+
 |                    Distance to Nearest-Neighbour Shells                    |
 |                    ------------------------------------                    |
 |          Shell             Distance (Ang^-1)          Multiplicity         |
 |          -----             -----------------          ------------         |
 |             1                   0.416120                      8            |
 |             2                   0.480495                      6            |
 |             3                   0.679522                     12            |
 |             4                   0.796810                     24            |
 |             5                   0.832241                      8            |
 |             6                   0.960989                      6            |
 |             7                   1.047213                     24            |
 |             8                   1.074418                     24            |
 |             9                   1.176966                     24            |
 |            10                   1.248361                     32            |
 |            11                   1.359044                     12            |
 |            12                   1.421322                     48            |
 |            13                   1.441483                     30            |
 |            14                   1.519457                     24            |
 |            15                   1.575407                     24            |
 |            16                   1.593620                     24            |
 |            17                   1.664482                      8            |
 |            18                   1.715709                     48            |
 |            19                   1.732448                     24            |
 |            20                   1.797846                     48            |
 |            21                   1.845374                     72            |
 |            22                   1.921978                      6            |
 |            23                   1.966508                     24            |
 |            24                   1.981130                     48            |
 |            25                   2.038565                     36            |
 |            26                   2.080602                     56            |
 |            27                   2.094427                     24            |
 |            28                   2.148837                     24            |
 |            29                   2.188757                     72            |
 |            30                   2.201902                     48            |
 |            31                   2.253719                     24            |
 |            32                   2.291813                     48            |
 |            33                   2.353933                     24            |
 |            34                   2.390430                     72            |
 |            35                   2.402472                     30            |
 |            36                   2.450051                     72            |
 +----------------------------------------------------------------------------+
 | The b-vectors are chosen automatically                                     |
 | Shell:  1 w_b    2.1656744      (Ang^2)                                    |
 | The following shells are used:   1                                         |
 +----------------------------------------------------------------------------+
 |                        Shell   # Nearest-Neighbours                        |
 |                        -----   --------------------                        |
 |                          1               8                                 |
 +----------------------------------------------------------------------------+
 | Completeness relation is fully satisfied [Eq. (B1), PRB 56, 12847 (1997)]  |
 +----------------------------------------------------------------------------+
 |                  b_k Vectors (Ang^-1) and Weights (Ang^2)                  |
 |                  ----------------------------------------                  |
 |            No.         b_k(x)      b_k(y)      b_k(z)        w_b           |
 |            ---        --------------------------------     --------        |
 |             1        -0.240247    0.240247   -0.240247     2.165674        |
 |             2         0.240247    0.240247    0.240247     2.165674        |
 |             3        -0.240247   -0.240247    0.240247     2.165674        |
 |             4        -0.240247    0.240247    0.240247     2.165674        |
 |             5         0.240247   -0.240247    0.240247     2.165674        |
 |             6        -0.240247   -0.240247   -0.240247     2.165674        |
 |             7         0.240247    0.240247   -0.240247     2.165674        |
 |             8         0.240247   -0.240247   -0.240247     2.165674        |
 +----------------------------------------------------------------------------+
 |                           b_k Directions (Ang^-1)                          |
 |                           -----------------------                          |
 |            No.           x           y           z                         |
 |            ---        --------------------------------                     |
 |             1        -0.240247    0.240247   -0.240247                     |
 |             2         0.240247    0.240247    0.240247                     |
 |             3        -0.240247   -0.240247    0.240247                     |
 |             4        -0.240247    0.240247    0.240247                     |
 +----------------------------------------------------------------------------+
  
 Time to write kmesh            0.334 (sec)

 sic.nnkp written.
 Time to write kmesh            0.334 (sec)

 Finished setting up k-point neighbours.

 Exiting wannier_setup in wannier90 22:07:28 

 Resuming Wannier90 at 22:07:30 


                                    ------
                                    SYSTEM
                                    ------

                              Lattice Vectors (Ang)
                    a_1    -2.179416   0.000000   2.179416
                    a_2     0.000000   2.179416   2.179416
                    a_3    -2.179416   2.179416   0.000000

                   Unit Cell Volume:      20.70383  (Ang^3)

                        Reciprocal-Space Vectors (Ang^-1)
                    b_1    -1.441483  -1.441483   1.441483
                    b_2     1.441483   1.441483   1.441483
                    b_3    -1.441483   1.441483  -1.441483
  
 *----------------------------------------------------------------------------*
 |   Site       Fractional Coordinate          Cartesian Coordinate (Ang)     |
 +----------------------------------------------------------------------------+
 | Si   1   0.00000   0.00000   0.00000   |    0.00000   0.00000   0.00000    |
 | C    1  -0.25000   0.75000  -0.25000   |    1.08971   1.08971   1.08971    |
 *----------------------------------------------------------------------------*
                                -----------
                                PROJECTIONS
                                -----------
  
 +----------------------------------------------------------------------------+
 |     Frac. Coord.   l mr  r        z-axis               x-axis          Z/a |
 +----------------------------------------------------------------------------+
 |  0.00  0.00  0.00 -3  1  1  0.000  0.000  1.000  1.000  0.000  0.000   1.0 |
 |  0.00  0.00  0.00 -3  2  1  0.000  0.000  1.000  1.000  0.000  0.000   1.0 |
 |  0.00  0.00  0.00 -3  3  1  0.000  0.000  1.000  1.000  0.000  0.000   1.0 |
 |  0.00  0.00  0.00 -3  4  1  0.000  0.000  1.000  1.000  0.000  0.000   1.0 |
 +----------------------------------------------------------------------------+
  
                                ------------
                                K-POINT GRID
                                ------------
  
             Grid size =  6 x  6 x  6      Total points =  216
  
 *----------------------------------------------------------------------------*
 | k-point      Fractional Coordinate        Cartesian Coordinate (Ang^-1)    |
 +----------------------------------------------------------------------------+
 |     1    0.00000   0.00000   0.00000   |    0.00000   0.00000   0.00000    |
 |     2    0.00000   0.00000   0.16667   |   -0.24025   0.24025  -0.24025    |
 |     3    0.00000   0.00000   0.33333   |   -0.48049   0.48049  -0.48049    |
 |     4    0.00000   0.00000   0.50000   |   -0.72074   0.72074  -0.72074    |
 |     5    0.00000   0.00000   0.66667   |   -0.96099   0.96099  -0.96099    |
 |     6    0.00000   0.00000   0.83333   |   -1.20124   1.20124  -1.20124    |
 |     7    0.00000   0.16667   0.00000   |    0.24025   0.24025   0.24025    |
 |     8    0.00000   0.16667   0.16667   |    0.00000   0.48049   0.00000    |
 |     9    0.00000   0.16667   0.33333   |   -0.24025   0.72074  -0.24025    |
 |    10    0.00000   0.16667   0.50000   |   -0.48049   0.96099  -0.48049    |
 |    11    0.00000   0.16667   0.66667   |   -0.72074   1.20124  -0.72074    |
 |    12    0.00000   0.16667   0.83333   |   -0.96099   1.44148  -0.96099    |
 |    13    0.00000   0.33333   0.00000   |    0.48049   0.48049   0.48049    |
 |    14    0.00000   0.33333   0.16667   |    0.24025   0.72074   0.24025    |
 |    15    0.00000   0.33333   0.33333   |    0.00000   0.96099   0.00000    |
 |    16    0.00000   0.33333   0.50000   |   -0.24025   1.20124  -0.24025    |
 |    17    0.00000   0.33333   0.66667   |   -0.48049   1.44148  -0.48049    |
 |    18    0.00000   0.33333   0.83333   |   -0.72074   1.68173  -0.72074    |
 |    19    0.00000   0.50000   0.00000   |    0.72074   0.72074   0.72074    |
 |    20    0.00000   0.50000   0.16667   |    0.48049   0.96099   0.48049    |
 |    21    0.00000   0.50000   0.33333   |    0.24025   1.20124   0.24025    |
 |    22    0.00000   0.50000   0.50000   |    0.00000   1.44148   0.00000    |
 |    23    0.00000   0.50000   0.66667   |   -0.24025   1.68173  -0.24025    |
 |    24    0.00000   0.50000   0.83333   |   -0.48049   1.92198  -0.48049    |
 |    25    0.00000   0.66667   0.00000   |    0.96099   0.96099   0.96099    |
 |    26    0.00000   0.66667   0.16667   |    0.72074   1.20124   0.72074    |
 |    27    0.00000   0.66667   0.33333   |    0.48049   1.44148   0.48049    |
 |    28    0.00000   0.66667   0.50000   |    0.24025   1.68173   0.24025    |
 |    29    0.00000   0.66667   0.66667   |    0.00000   1.92198   0.00000    |
 |    30    0.00000   0.66667   0.83333   |   -0.24025   2.16223  -0.24025    |
 |    31    0.00000   0.83333   0.00000   |    1.20124   1.20124   1.20124    |
 |    32    0.00000   0.83333   0.16667   |    0.96099   1.44148   0.96099    |
 |    33    0.00000   0.83333   0.33333   |    0.72074   1.68173   0.72074    |
 |    34    0.00000   0.83333   0.50000   |    0.48049   1.92198   0.48049    |
 |    35    0.00000   0.83333   0.66667   |    0.24025   2.16223   0.24025    |
 |    36    0.00000   0.83333   0.83333   |    0.00000   2.40247   0.00000    |
 |    37    0.16667   0.00000   0.00000   |   -0.24025  -0.24025   0.24025    |
 |    38    0.16667   0.00000   0.16667   |   -0.48049   0.00000   0.00000    |
 |    39    0.16667   0.00000   0.33333   |   -0.72074   0.24025  -0.24025    |
 |    40    0.16667   0.00000   0.50000   |   -0.96099   0.48049  -0.48049    |
 |    41    0.16667   0.00000   0.66667   |   -1.20124   0.72074  -0.72074    |
 |    42    0.16667   0.00000   0.83333   |   -1.44148   0.96099  -0.96099    |
 |    43    0.16667   0.16667   0.00000   |    0.00000   0.00000   0.48049    |
 |    44    0.16667   0.16667   0.16667   |   -0.24025   0.24025   0.24025    |
 |    45    0.16667   0.16667   0.33333   |   -0.48049   0.48049   0.00000    |
 |    46    0.16667   0.16667   0.50000   |   -0.72074   0.72074  -0.24025    |
 |    47    0.16667   0.16667   0.66667   |   -0.96099   0.96099  -0.48049    |
 |    48    0.16667   0.16667   0.83333   |   -1.20124   1.20124  -0.72074    |
 |    49    0.16667   0.33333   0.00000   |    0.24025   0.24025   0.72074    |
 |    50    0.16667   0.33333   0.16667   |   -0.00000   0.48049   0.48049    |
 |    51    0.16667   0.33333   0.33333   |   -0.24025   0.72074   0.24025    |
 |    52    0.16667   0.33333   0.50000   |   -0.48049   0.96099   0.00000    |
 |    53    0.16667   0.33333   0.66667   |   -0.72074   1.20124  -0.24025    |
 |    54    0.16667   0.33333   0.83333   |   -0.96099   1.44148  -0.48049    |
 |    55    0.16667   0.50000   0.00000   |    0.48049   0.48049   0.96099    |
 |    56    0.16667   0.50000   0.16667   |    0.24025   0.72074   0.72074    |
 |    57    0.16667   0.50000   0.33333   |    0.00000   0.96099   0.48049    |
 |    58    0.16667   0.50000   0.50000   |   -0.24025   1.20124   0.24025    |
 |    59    0.16667   0.50000   0.66667   |   -0.48049   1.44148   0.00000    |
 |    60    0.16667   0.50000   0.83333   |   -0.72074   1.68173  -0.24025    |
 |    61    0.16667   0.66667   0.00000   |    0.72074   0.72074   1.20124    |
 |    62    0.16667   0.66667   0.16667   |    0.48049   0.96099   0.96099    |
 |    63    0.16667   0.66667   0.33333   |    0.24025   1.20124   0.72074    |
 |    64    0.16667   0.66667   0.50000   |    0.00000   1.44148   0.48049    |
 |    65    0.16667   0.66667   0.66667   |   -0.24025   1.68173   0.24025    |
 |    66    0.16667   0.66667   0.83333   |   -0.48049   1.92198   0.00000    |
 |    67    0.16667   0.83333   0.00000   |    0.96099   0.96099   1.44148    |
 |    68    0.16667   0.83333   0.16667   |    0.72074   1.20124   1.20124    |
 |    69    0.16667   0.83333   0.33333   |    0.48049   1.44148   0.96099    |
 |    70    0.16667   0.83333   0.50000   |    0.24025   1.68173   0.72074    |
 |    71    0.16667   0.83333   0.66667   |   -0.00000   1.92198   0.48049    |
 |    72    0.16667   0.83333   0.83333   |   -0.24025   2.16223   0.24025    |
 |    73    0.33333   0.00000   0.00000   |   -0.48049  -0.48049   0.48049    |
 |    74    0.33333   0.00000   0.16667   |   -0.72074  -0.24025   0.24025    |
 |    75    0.33333   0.00000   0.33333   |   -0.96099   0.00000   0.00000    |
 |    76    0.33333   0.00000   0.50000   |   -1.20124   0.24025  -0.24025    |
 |    77    0.33333   0.00000   0.66667   |   -1.44148   0.48049  -0.48049    |
 |    78    0.33333   0.00000   0.83333   |   -1.68173   0.72074  -0.72074    |
 |    79    0.33333   0.16667   0.00000   |   -0.24025  -0.24025   0.72074    |
 |    80    0.33333   0.16667   0.16667   |   -0.48049   0.00000   0.48049    |
 |    81    0.33333   0.16667   0.33333   |   -0.72074   0.24025   0.24025    |
 |    82    0.33333   0.16667   0.50000   |   -0.96099   0.48049   0.00000    |
 |    83    0.33333   0.16667   0.66667   |   -1.20124   0.72074  -0.24025    |
 |    84    0.33333   0.16667   0.83333   |   -1.44148   0.96099  -0.48049    |
 |    85    0.33333   0.33333   0.00000   |    0.00000   0.00000   0.96099    |
 |    86    0.33333   0.33333   0.16667   |   -0.24025   0.24025   0.72074    |
 |    87    0.33333   0.33333   0.33333   |   -0.48049   0.48049   0.48049    |
 |    88    0.33333   0.33333   0.50000   |   -0.72074   0.72074   0.24025    |
 |    89    0.33333   0.33333   0.66667   |   -0.96099   0.96099  -0.00000    |
 |    90    0.33333   0.33333   0.83333   |   -1.20124   1.20124  -0.24025    |
 |    91    0.33333   0.50000   0.00000   |    0.24025   0.24025   1.20124    |
 |    92    0.33333   0.50000   0.16667   |    0.00000   0.48049   0.96099    |
 |    93    0.33333   0.50000   0.33333   |   -0.24025   0.72074   0.72074    |
 |    94    0.33333   0.50000   0.50000   |   -0.48049   0.96099   0.48049    |
 |    95    0.33333   0.50000   0.66667   |   -0.72074   1.20124   0.24025    |
 |    96    0.33333   0.50000   0.83333   |   -0.96099   1.44148   0.00000    |
 |    97    0.33333   0.66667   0.00000   |    0.48049   0.48049   1.44148    |
 |    98    0.33333   0.66667   0.16667   |    0.24025   0.72074   1.20124    |
 |    99    0.33333   0.66667   0.33333   |    0.00000   0.96099   0.96099    |
 |   100    0.33333   0.66667   0.50000   |   -0.24025   1.20124   0.72074    |
 |   101    0.33333   0.66667   0.66667   |   -0.48049   1.44148   0.48049    |
 |   102    0.33333   0.66667   0.83333   |   -0.72074   1.68173   0.24025    |
 |   103    0.33333   0.83333   0.00000   |    0.72074   0.72074   1.68173    |
 |   104    0.33333   0.83333   0.16667   |    0.48049   0.96099   1.44148    |
 |   105    0.33333   0.83333   0.33333   |    0.24025   1.20124   1.20124    |
 |   106    0.33333   0.83333   0.50000   |   -0.00000   1.44148   0.96099    |
 |   107    0.33333   0.83333   0.66667   |   -0.24025   1.68173   0.72074    |
 |   108    0.33333   0.83333   0.83333   |   -0.48049   1.92198   0.48049    |
 |   109    0.50000   0.00000   0.00000   |   -0.72074  -0.72074   0.72074    |
 |   110    0.50000   0.00000   0.16667   |   -0.96099  -0.48049   0.48049    |
 |   111    0.50000   0.00000   0.33333   |   -1.20124  -0.24025   0.24025    |
 |   112    0.50000   0.00000   0.50000   |   -1.44148   0.00000   0.00000    |
 |   113    0.50000   0.00000   0.66667   |   -1.68173   0.24025  -0.24025    |
 |   114    0.50000   0.00000   0.83333   |   -1.92198   0.48049  -0.48049    |
 |   115    0.50000   0.16667   0.00000   |   -0.48049  -0.48049   0.96099    |
 |   116    0.50000   0.16667   0.16667   |   -0.72074  -0.24025   0.72074    |
 |   117    0.50000   0.16667   0.33333   |   -0.96099   0.00000   0.48049    |
 |   118    0.50000   0.16667   0.50000   |   -1.20124   0.24025   0.24025    |
 |   119    0.50000   0.16667   0.66667   |   -1.44148   0.48049   0.00000    |
 |   120    0.50000   0.16667   0.83333   |   -1.68173   0.72074  -0.24025    |
 |   121    0.50000   0.33333   0.00000   |   -0.24025  -0.24025   1.20124    |
 |   122    0.50000   0.33333   0.16667   |   -0.48049   0.00000   0.96099    |
 |   123    0.50000   0.33333   0.33333   |   -0.72074   0.24025   0.72074    |
 |   124    0.50000   0.33333   0.50000   |   -0.96099   0.48049   0.48049    |
 |   125    0.50000   0.33333   0.66667   |   -1.20124   0.72074   0.24025    |
 |   126    0.50000   0.33333   0.83333   |   -1.44148   0.96099   0.00000    |
 |   127    0.50000   0.50000   0.00000   |    0.00000   0.00000   1.44148    |
 |   128    0.50000   0.50000   0.16667   |   -0.24025   0.24025   1.20124    |
 |   129    0.50000   0.50000   0.33333   |   -0.48049   0.48049   0.96099    |
 |   130    0.50000   0.50000   0.50000   |   -0.72074   0.72074   0.72074    |
 |   131    0.50000   0.50000   0.66667   |   -0.96099   0.96099   0.48049    |
 |   132    0.50000   0.50000   0.83333   |   -1.20124   1.20124   0.24025    |
 |   133    0.50000   0.66667   0.00000   |    0.24025   0.24025   1.68173    |
 |   134    0.50000   0.66667   0.16667   |    0.00000   0.48049   1.44148    |
 |   135    0.50000   0.66667   0.33333   |   -0.24025   0.72074   1.20124    |
 |   136    0.50000   0.66667   0.50000   |   -0.48049   0.96099   0.96099    |
 |   137    0.50000   0.66667   0.66667   |   -0.72074   1.20124   0.72074    |
 |   138    0.50000   0.66667   0.83333   |   -0.96099   1.44148   0.48049    |
 |   139    0.50000   0.83333   0.00000   |    0.48049   0.48049   1.92198    |
 |   140    0.50000   0.83333   0.16667   |    0.24025   0.72074   1.68173    |
 |   141    0.50000   0.83333   0.33333   |   -0.00000   0.96099   1.44148    |
 |   142    0.50000   0.83333   0.50000   |   -0.24025   1.20124   1.20124    |
 |   143    0.50000   0.83333   0.66667   |   -0.48049   1.44148   0.96099    |
 |   144    0.50000   0.83333   0.83333   |   -0.72074   1.68173   0.72074    |
 |   145    0.66667   0.00000   0.00000   |   -0.96099  -0.96099   0.96099    |
 |   146    0.66667   0.00000   0.16667   |   -1.20124  -0.72074   0.72074    |
 |   147    0.66667   0.00000   0.33333   |   -1.44148  -0.48049   0.48049    |
 |   148    0.66667   0.00000   0.50000   |   -1.68173  -0.24025   0.24025    |
 |   149    0.66667   0.00000   0.66667   |   -1.92198   0.00000   0.00000    |
 |   150    0.66667   0.00000   0.83333   |   -2.16223   0.24025  -0.24025    |
 |   151    0.66667   0.16667   0.00000   |   -0.72074  -0.72074   1.20124    |
 |   152    0.66667   0.16667   0.16667   |   -0.96099  -0.48049   0.96099    |
 |   153    0.66667   0.16667   0.33333   |   -1.20124  -0.24025   0.72074    |
 |   154    0.66667   0.16667   0.50000   |   -1.44148   0.00000   0.48049    |
 |   155    0.66667   0.16667   0.66667   |   -1.68173   0.24025   0.24025    |
 |   156    0.66667   0.16667   0.83333   |   -1.92198   0.48049   0.00000    |
 |   157    0.66667   0.33333   0.00000   |   -0.48049  -0.48049   1.44148    |
 |   158    0.66667   0.33333   0.16667   |   -0.72074  -0.24025   1.20124    |
 |   159    0.66667   0.33333   0.33333   |   -0.96099  -0.00000   0.96099    |
 |   160    0.66667   0.33333   0.50000   |   -1.20124   0.24025   0.72074    |
 |   161    0.66667   0.33333   0.66667   |   -1.44148   0.48049   0.48049    |
 |   162    0.66667   0.33333   0.83333   |   -1.68173   0.72074   0.24025    |
 |   163    0.66667   0.50000   0.00000   |   -0.24025  -0.24025   1.68173    |
 |   164    0.66667   0.50000   0.16667   |   -0.48049  -0.00000   1.44148    |
 |   165    0.66667   0.50000   0.33333   |   -0.72074   0.24025   1.20124    |
 |   166    0.66667   0.50000   0.50000   |   -0.96099   0.48049   0.96099    |
 |   167    0.66667   0.50000   0.66667   |   -1.20124   0.72074   0.72074    |
 |   168    0.66667   0.50000   0.83333   |   -1.44148   0.96099   0.48049    |
 |   169    0.66667   0.66667   0.00000   |    0.00000   0.00000   1.92198    |
 |   170    0.66667   0.66667   0.16667   |   -0.24025   0.24025   1.68173    |
 |   171    0.66667   0.66667   0.33333   |   -0.48049   0.48049   1.44148    |
 |   172    0.66667   0.66667   0.50000   |   -0.72074   0.72074   1.20124    |
 |   173    0.66667   0.66667   0.66667   |   -0.96099   0.96099   0.96099    |
 |   174    0.66667   0.66667   0.83333   |   -1.20124   1.20124   0.72074    |
 |   175    0.66667   0.83333   0.00000   |    0.24025   0.24025   2.16223    |
 |   176    0.66667   0.83333   0.16667   |   -0.00000   0.48049   1.92198    |
 |   177    0.66667   0.83333   0.33333   |   -0.24025   0.72074   1.68173    |
 |   178    0.66667   0.83333   0.50000   |   -0.48049   0.96099   1.44148    |
 |   179    0.66667   0.83333   0.66667   |   -0.72074   1.20124   1.20124    |
 |   180    0.66667   0.83333   0.83333   |   -0.96099   1.44148   0.96099    |
 |   181    0.83333   0.00000   0.00000   |   -1.20124  -1.20124   1.20124    |
 |   182    0.83333   0.00000   0.16667   |   -1.44148  -0.96099   0.96099    |
 |   183    0.83333   0.00000   0.33333   |   -1.68173  -0.72074   0.72074    |
 |   184    0.83333   0.00000   0.50000   |   -1.92198  -0.48049   0.48049    |
 |   185    0.83333   0.00000   0.66667   |   -2.16223  -0.24025   0.24025    |
 |   186    0.83333   0.00000   0.83333   |   -2.40247   0.00000   0.00000    |
 |   187    0.83333   0.16667   0.00000   |   -0.96099  -0.96099   1.44148    |
 |   188    0.83333   0.16667   0.16667   |   -1.20124  -0.72074   1.20124    |
 |   189    0.83333   0.16667   0.33333   |   -1.44148  -0.48049   0.96099    |
 |   190    0.83333   0.16667   0.50000   |   -1.68173  -0.24025   0.72074    |
 |   191    0.83333   0.16667   0.66667   |   -1.92198   0.00000   0.48049    |
 |   192    0.83333   0.16667   0.83333   |   -2.16223   0.24025   0.24025    |
 |   193    0.83333   0.33333   0.00000   |   -0.72074  -0.72074   1.68173    |
 |   194    0.83333   0.33333   0.16667   |   -0.96099  -0.48049   1.44148    |
 |   195    0.83333   0.33333   0.33333   |   -1.20124  -0.24025   1.20124    |
 |   196    0.83333   0.33333   0.50000   |   -1.44148   0.00000   0.96099    |
 |   197    0.83333   0.33333   0.66667   |   -1.68173   0.24025   0.72074    |
 |   198    0.83333   0.33333   0.83333   |   -1.92198   0.48049   0.48049    |
 |   199    0.83333   0.50000   0.00000   |   -0.48049  -0.48049   1.92198    |
 |   200    0.83333   0.50000   0.16667   |   -0.72074  -0.24025   1.68173    |
 |   201    0.83333   0.50000   0.33333   |   -0.96099   0.00000   1.44148    |
 |   202    0.83333   0.50000   0.50000   |   -1.20124   0.24025   1.20124    |
 |   203    0.83333   0.50000   0.66667   |   -1.44148   0.48049   0.96099    |
 |   204    0.83333   0.50000   0.83333   |   -1.68173   0.72074   0.72074    |
 |   205    0.83333   0.66667   0.00000   |   -0.24025  -0.24025   2.16223    |
 |   206    0.83333   0.66667   0.16667   |   -0.48049   0.00000   1.92198    |
 |   207    0.83333   0.66667   0.33333   |   -0.72074   0.24025   1.68173    |
 |   208    0.83333   0.66667   0.50000   |   -0.96099   0.48049   1.44148    |
 |   209    0.83333   0.66667   0.66667   |   -1.20124   0.72074   1.20124    |
 |   210    0.83333   0.66667   0.83333   |   -1.44148   0.96099   0.96099    |
 |   211    0.83333   0.83333   0.00000   |    0.00000   0.00000   2.40247    |
 |   212    0.83333   0.83333   0.16667   |   -0.24025   0.24025   2.16223    |
 |   213    0.83333   0.83333   0.33333   |   -0.48049   0.48049   1.92198    |
 |   214    0.83333   0.83333   0.50000   |   -0.72074   0.72074   1.68173    |
 |   215    0.83333   0.83333   0.66667   |   -0.96099   0.96099   1.44148    |
 |   216    0.83333   0.83333   0.83333   |   -1.20124   1.20124   1.20124    |
 *----------------------------------------------------------------------------*
  
  
 *---------------------------------- MAIN ------------------------------------*
 |  Number of Wannier Functions               :                 4             |
 |  Number of Objective Wannier Functions     :                 4             |
 |  Number of input Bloch states              :                 4             |
 |  Output verbosity (1=low, 5=high)          :                 2             |
 |  Timing Level (1=low, 5=high)              :                 1             |
 |  Optimisation (0=memory, 3=speed)          :                 3             |
 |  Length Unit                               :               Ang             |
 |  Post-processing setup (write *.nnkp)      :                 T             |
 |  Using Gamma-only branch of algorithms     :                 F             |
 *----------------------------------------------------------------------------*
 *------------------------------- WANNIERISE ---------------------------------*
 |  Total number of iterations                :               300             |
 |  Number of CG steps before reset           :                 5             |
 |  Trial step length for line search         :             2.000             |
 |  Convergence tolerence                     :         0.100E-09             |
 |  Convergence window                        :                -1             |
 |  Iterations between writing output         :                 1             |
 |  Iterations between backing up to disk     :               100             |
 |  Write r^2_nm to file                      :                 F             |
 |  Write xyz WF centres to file              :                 F             |
 |  Write on-site energies <0n|H|0n> to file  :                 F             |
 |  Use guiding centre to control phases      :                 F             |
 |  Use phases for initial projections        :                 F             |
 *----------------------------------------------------------------------------*
 *-------------------------------- PLOTTING ----------------------------------*
 |  Plotting Hamiltonian in WF basis          :                 T             |
 *----------------------------------------------------------------------------*
 Time to read parameters        0.001 (sec)

 *---------------------------------- K-MESH ----------------------------------*
 +----------------------------------------------------------------------------+
 |                    Distance to Nearest-Neighbour Shells                    |
 |                    ------------------------------------                    |
 |          Shell             Distance (Ang^-1)          Multiplicity         |
 |          -----             -----------------          ------------         |
 |             1                   0.416120                      8            |
 |             2                   0.480495                      6            |
 |             3                   0.679522                     12            |
 |             4                   0.796810                     24            |
 |             5                   0.832241                      8            |
 |             6                   0.960989                      6            |
 |             7                   1.047213                     24            |
 |             8                   1.074418                     24            |
 |             9                   1.176966                     24            |
 |            10                   1.248361                     32            |
 |            11                   1.359044                     12            |
 |            12                   1.421322                     48            |
 |            13                   1.441483                     30            |
 |            14                   1.519457                     24            |
 |            15                   1.575407                     24            |
 |            16                   1.593620                     24            |
 |            17                   1.664482                      8            |
 |            18                   1.715709                     48            |
 |            19                   1.732448                     24            |
 |            20                   1.797846                     48            |
 |            21                   1.845374                     72            |
 |            22                   1.921978                      6            |
 |            23                   1.966508                     24            |
 |            24                   1.981130                     48            |
 |            25                   2.038565                     36            |
 |            26                   2.080602                     56            |
 |            27                   2.094427                     24            |
 |            28                   2.148837                     24            |
 |            29                   2.188757                     72            |
 |            30                   2.201902                     48            |
 |            31                   2.253719                     24            |
 |            32                   2.291813                     48            |
 |            33                   2.353933                     24            |
 |            34                   2.390430                     72            |
 |            35                   2.402472                     30            |
 |            36                   2.450051                     72            |
 +----------------------------------------------------------------------------+
 | The b-vectors are chosen automatically                                     |
 | Shell:  1 w_b    2.1656744      (Ang^2)                                    |
 | The following shells are used:   1                                         |
 +----------------------------------------------------------------------------+
 |                        Shell   # Nearest-Neighbours                        |
 |                        -----   --------------------                        |
 |                          1               8                                 |
 +----------------------------------------------------------------------------+
 | Completeness relation is fully satisfied [Eq. (B1), PRB 56, 12847 (1997)]  |
 +----------------------------------------------------------------------------+
 |                  b_k Vectors (Ang^-1) and Weights (Ang^2)                  |
 |                  ----------------------------------------                  |
 |            No.         b_k(x)      b_k(y)      b_k(z)        w_b           |
 |            ---        --------------------------------     --------        |
 |             1        -0.240247    0.240247   -0.240247     2.165674        |
 |             2         0.240247    0.240247    0.240247     2.165674        |
 |             3        -0.240247   -0.240247    0.240247     2.165674        |
 |             4        -0.240247    0.240247    0.240247     2.165674        |
 |             5         0.240247   -0.240247    0.240247     2.165674        |
 |             6        -0.240247   -0.240247   -0.240247     2.165674        |
 |             7         0.240247    0.240247   -0.240247     2.165674        |
 |             8         0.240247   -0.240247   -0.240247     2.165674        |
 +----------------------------------------------------------------------------+
 |                           b_k Directions (Ang^-1)                          |
 |                           -----------------------                          |
 |            No.           x           y           z                         |
 |            ---        --------------------------------                     |
 |             1        -0.240247    0.240247   -0.240247                     |
 |             2         0.240247    0.240247    0.240247                     |
 |             3        -0.240247   -0.240247    0.240247                     |
 |             4        -0.240247    0.240247    0.240247                     |
 +----------------------------------------------------------------------------+
  
 Time to get kmesh              0.348 (sec)
 Time to project overlaps       0.003 (sec)

 *------------------------------- WANNIERISE ---------------------------------*
 +--------------------------------------------------------------------+<-- CONV
 | Iter  Delta Spread     RMS Gradient      Spread (Ang^2)      Time  |<-- CONV
 +--------------------------------------------------------------------+<-- CONV

 ------------------------------------------------------------------------------
 Initial State
  WF centre and spread    1  (  0.705404,  0.705404,  0.705404 )     1.62802502
  WF centre and spread    2  (  0.705404, -0.705404, -0.705404 )     1.62802504
  WF centre and spread    3  ( -0.705404,  0.705404, -0.705404 )     1.62802499
  WF centre and spread    4  ( -0.705404, -0.705404,  0.705404 )     1.62802503
  Sum of centres and spreads (  0.000000, -0.000000, -0.000000 )     6.51210008

      0     0.651E+01     0.0000000000        6.5120998461       0.00  <-- CONV
        O_D=      1.5666217 O_OD=      1.0660108 O_TOT=      6.5120998 <-- SPRD
 ------------------------------------------------------------------------------
 Cycle:      1
  WF centre and spread    1  (  0.708524,  0.708524,  0.708524 )     1.25728696
  WF centre and spread    2  (  0.708524, -0.708524, -0.708524 )     1.25728697
  WF centre and spread    3  ( -0.708524,  0.708524, -0.708524 )     1.25728695
  WF centre and spread    4  ( -0.708524, -0.708524,  0.708524 )     1.25728698
  Sum of centres and spreads (  0.000000, -0.000000, -0.000000 )     5.02914786

      1    -0.148E+01     0.6027784758        5.0291476219       0.00  <-- CONV
        O_D=      0.3635104 O_OD=      0.7861698 O_TOT=      5.0291476 <-- SPRD
 Delta: O_D= -0.1203111E+01 O_OD= -0.2798410E+00 O_TOT= -0.1482952E+01 <-- DLTA
 ------------------------------------------------------------------------------
 Cycle:      2
  WF centre and spread    1  (  0.709479,  0.709479,  0.709479 )     1.14734529
  WF centre and spread    2  (  0.709479, -0.709479, -0.709479 )     1.14734529
  WF centre and spread    3  ( -0.709479,  0.709479, -0.709479 )     1.14734529
  WF centre and spread    4  ( -0.709479, -0.709479,  0.709479 )     1.14734530
  Sum of centres and spreads (  0.000000, -0.000000, -0.000000 )     4.58938117

      2    -0.440E+00     0.4039343252        4.5893809283       0.01  <-- CONV
        O_D=      0.0415420 O_OD=      0.6683716 O_TOT=      4.5893809 <-- SPRD
 Delta: O_D= -0.3219685E+00 O_OD= -0.1177982E+00 O_TOT= -0.4397667E+00 <-- DLTA
 ------------------------------------------------------------------------------
 Cycle:      3
  WF centre and spread    1  (  0.709744,  0.709744,  0.709744 )     1.13011684
  WF centre and spread    2  (  0.709744, -0.709744, -0.709744 )     1.13011684
  WF centre and spread    3  ( -0.709744,  0.709744, -0.709744 )     1.13011684
  WF centre and spread    4  ( -0.709744, -0.709744,  0.709744 )     1.13011685
  Sum of centres and spreads (  0.000000, -0.000000, -0.000000 )     4.52046736

      3    -0.689E-01     0.2012598251        4.5204671209       0.01  <-- CONV
        O_D=      0.0119067 O_OD=      0.6290930 O_TOT=      4.5204671 <-- SPRD
 Delta: O_D= -0.2963527E-01 O_OD= -0.3927854E-01 O_TOT= -0.6891381E-01 <-- DLTA
 ------------------------------------------------------------------------------
 Cycle:      4
  WF centre and spread    1  (  0.709936,  0.709936,  0.709936 )     1.12530612
  WF centre and spread    2  (  0.709936, -0.709936, -0.709936 )     1.12530612
  WF centre and spread    3  ( -0.709936,  0.709936, -0.709936 )     1.12530612
  WF centre and spread    4  ( -0.709936, -0.709936,  0.709936 )     1.12530614
  Sum of centres and spreads (  0.000000, -0.000000, -0.000000 )     4.50122450

      4    -0.192E-01     0.0962723121        4.5012242600       0.02  <-- CONV
        O_D=      0.0083487 O_OD=      0.6134082 O_TOT=      4.5012243 <-- SPRD
 Delta: O_D= -0.3558014E-02 O_OD= -0.1568485E-01 O_TOT= -0.1924286E-01 <-- DLTA
 ------------------------------------------------------------------------------
 Cycle:      5
  WF centre and spread    1  (  0.710077,  0.710077,  0.710077 )     1.12343655
  WF centre and spread    2  (  0.710077, -0.710077, -0.710077 )     1.12343655
  WF centre and spread    3  ( -0.710077,  0.710077, -0.710077 )     1.12343655
  WF centre and spread    4  ( -0.710077, -0.710077,  0.710077 )     1.12343657
  Sum of centres and spreads (  0.000000, -0.000000, -0.000000 )     4.49374623

      5    -0.748E-02     0.0575893132        4.4937459849       0.02  <-- CONV
        O_D=      0.0056339 O_OD=      0.6086447 O_TOT=      4.4937460 <-- SPRD
 Delta: O_D= -0.2714826E-02 O_OD= -0.4763449E-02 O_TOT= -0.7478275E-02 <-- DLTA
 ------------------------------------------------------------------------------
 Cycle:      6
  WF centre and spread    1  (  0.710155,  0.710155,  0.710155 )     1.12272677
  WF centre and spread    2  (  0.710155, -0.710155, -0.710155 )     1.12272677
  WF centre and spread    3  ( -0.710155,  0.710155, -0.710155 )     1.12272677
  WF centre and spread    4  ( -0.710155, -0.710155,  0.710155 )     1.12272678
  Sum of centres and spreads (  0.000000, -0.000000, -0.000000 )     4.49090710

      6    -0.284E-02     0.0368248166        4.4909068539       0.03  <-- CONV
        O_D=      0.0042824 O_OD=      0.6071570 O_TOT=      4.4909069 <-- SPRD
 Delta: O_D= -0.1351440E-02 O_OD= -0.1487691E-02 O_TOT= -0.2839131E-02 <-- DLTA
 ------------------------------------------------------------------------------
 Cycle:      7
  WF centre and spread    1  (  0.710163,  0.710163,  0.710163 )     1.12259604
  WF centre and spread    2  (  0.710163, -0.710163, -0.710163 )     1.12259604
  WF centre and spread    3  ( -0.710163,  0.710163, -0.710163 )     1.12259603
  WF centre and spread    4  ( -0.710163, -0.710163,  0.710163 )     1.12259605
  Sum of centres and spreads (  0.000000, -0.000000, -0.000000 )     4.49038415

      7    -0.523E-03     0.0173963912        4.4903839095       0.03  <-- CONV
        O_D=      0.0040538 O_OD=      0.6068627 O_TOT=      4.4903839 <-- SPRD
 Delta: O_D= -0.2286359E-03 O_OD= -0.2943086E-03 O_TOT= -0.5229444E-03 <-- DLTA
 ------------------------------------------------------------------------------
 Cycle:      8
  WF centre and spread    1  (  0.710171,  0.710171,  0.710171 )     1.12255549
  WF centre and spread    2  (  0.710171, -0.710171, -0.710171 )     1.12255549
  WF centre and spread    3  ( -0.710171,  0.710171, -0.710171 )     1.12255549
  WF centre and spread    4  ( -0.710171, -0.710171,  0.710171 )     1.12255550
  Sum of centres and spreads (  0.000000, -0.000000, -0.000000 )     4.49022198

      8    -0.162E-03     0.0092101050        4.4902217356       0.03  <-- CONV
        O_D=      0.0039963 O_OD=      0.6067581 O_TOT=      4.4902217 <-- SPRD
 Delta: O_D= -0.5749580E-04 O_OD= -0.1046781E-03 O_TOT= -0.1621739E-03 <-- DLTA
 ------------------------------------------------------------------------------
 Cycle:      9
  WF centre and spread    1  (  0.710176,  0.710176,  0.710176 )     1.12254473
  WF centre and spread    2  (  0.710176, -0.710176, -0.710176 )     1.12254473
  WF centre and spread    3  ( -0.710176,  0.710176, -0.710176 )     1.12254472
  WF centre and spread    4  ( -0.710176, -0.710176,  0.710176 )     1.12254474
  Sum of centres and spreads (  0.000000, -0.000000, -0.000000 )     4.49017891

      9    -0.431E-04     0.0044991956        4.4901786696       0.04  <-- CONV
        O_D=      0.0039730 O_OD=      0.6067383 O_TOT=      4.4901787 <-- SPRD
 Delta: O_D= -0.2329200E-04 O_OD= -0.1977403E-04 O_TOT= -0.4306603E-04 <-- DLTA
 ------------------------------------------------------------------------------
 Cycle:     10
  WF centre and spread    1  (  0.710179,  0.710179,  0.710179 )     1.12254109
  WF centre and spread    2  (  0.710179, -0.710179, -0.710179 )     1.12254109
  WF centre and spread    3  ( -0.710179,  0.710179, -0.710179 )     1.12254109
  WF centre and spread    4  ( -0.710179, -0.710179,  0.710179 )     1.12254111
  Sum of centres and spreads (  0.000000, -0.000000, -0.000000 )     4.49016438

     10    -0.145E-04     0.0026732925        4.4901641421       0.04  <-- CONV
        O_D=      0.0039631 O_OD=      0.6067337 O_TOT=      4.4901641 <-- SPRD
 Delta: O_D= -0.9952821E-05 O_OD= -0.4574652E-05 O_TOT= -0.1452747E-04 <-- DLTA
 ------------------------------------------------------------------------------
 Cycle:     11
  WF centre and spread    1  (  0.710181,  0.710181,  0.710181 )     1.12253984
  WF centre and spread    2  (  0.710181, -0.710181, -0.710181 )     1.12253984
  WF centre and spread    3  ( -0.710181,  0.710181, -0.710181 )     1.12253983
  WF centre and spread    4  ( -0.710181, -0.710181,  0.710181 )     1.12253985
  Sum of centres and spreads (  0.000000, -0.000000, -0.000000 )     4.49015936

     11    -0.503E-05     0.0015435886        4.4901591154       0.05  <-- CONV
        O_D=      0.0039570 O_OD=      0.6067347 O_TOT=      4.4901591 <-- SPRD
 Delta: O_D= -0.6052473E-05 O_OD=  0.1025762E-05 O_TOT= -0.5026710E-05 <-- DLTA
 ------------------------------------------------------------------------------
 Cycle:     12
  WF centre and spread    1  (  0.710182,  0.710182,  0.710182 )     1.12253959
  WF centre and spread    2  (  0.710182, -0.710182, -0.710182 )     1.12253959
  WF centre and spread    3  ( -0.710182,  0.710182, -0.710182 )     1.12253958
  WF centre and spread    4  ( -0.710182, -0.710182,  0.710182 )     1.12253960
  Sum of centres and spreads (  0.000000, -0.000000, -0.000000 )     4.49015836

     12    -0.100E-05     0.0006680080        4.4901581142       0.05  <-- CONV
        O_D=      0.0039542 O_OD=      0.6067366 O_TOT=      4.4901581 <-- SPRD
 Delta: O_D= -0.2836160E-05 O_OD=  0.1834918E-05 O_TOT= -0.1001242E-05 <-- DLTA
 ------------------------------------------------------------------------------
 Cycle:     13
  WF centre and spread    1  (  0.710182,  0.710182,  0.710182 )     1.12253954
  WF centre and spread    2  (  0.710182, -0.710182, -0.710182 )     1.12253954
  WF centre and spread    3  ( -0.710182,  0.710182, -0.710182 )     1.12253954
  WF centre and spread    4  ( -0.710182, -0.710182,  0.710182 )     1.12253956
  Sum of centres and spreads (  0.000000, -0.000000, -0.000000 )     4.49015818

     13    -0.179E-06     0.0002918774        4.4901579356       0.06  <-- CONV
        O_D=      0.0039534 O_OD=      0.6067371 O_TOT=      4.4901579 <-- SPRD
 Delta: O_D= -0.7575702E-06 O_OD=  0.5789825E-06 O_TOT= -0.1785877E-06 <-- DLTA
 ------------------------------------------------------------------------------
 Cycle:     14
  WF centre and spread    1  (  0.710183,  0.710183,  0.710183 )     1.12253951
  WF centre and spread    2  (  0.710183, -0.710183, -0.710183 )     1.12253951
  WF centre and spread    3  ( -0.710183,  0.710183, -0.710183 )     1.12253951
  WF centre and spread    4  ( -0.710183, -0.710183,  0.710183 )     1.12253952
  Sum of centres and spreads (  0.000000, -0.000000, -0.000000 )     4.49015805

     14    -0.127E-06     0.0002079815        4.4901578081       0.06  <-- CONV
        O_D=      0.0039522 O_OD=      0.6067383 O_TOT=      4.4901578 <-- SPRD
 Delta: O_D= -0.1233039E-05 O_OD=  0.1105549E-05 O_TOT= -0.1274907E-06 <-- DLTA
 ------------------------------------------------------------------------------
 Cycle:     15
  WF centre and spread    1  (  0.710183,  0.710183,  0.710183 )     1.12253950
  WF centre and spread    2  (  0.710183, -0.710183, -0.710183 )     1.12253950
  WF centre and spread    3  ( -0.710183,  0.710183, -0.710183 )     1.12253950
  WF centre and spread    4  ( -0.710183, -0.710183,  0.710183 )     1.12253952
  Sum of centres and spreads (  0.000000, -0.000000, -0.000000 )     4.49015802

     15    -0.276E-07     0.0001239141        4.4901577805       0.06  <-- CONV
        O_D=      0.0039518 O_OD=      0.6067386 O_TOT=      4.4901578 <-- SPRD
 Delta: O_D= -0.3923982E-06 O_OD=  0.3647917E-06 O_TOT= -0.2760648E-07 <-- DLTA
 ------------------------------------------------------------------------------
 Cycle:     16
  WF centre and spread    1  (  0.710183,  0.710183,  0.710183 )     1.12253950
  WF centre and spread    2  (  0.710183, -0.710183, -0.710183 )     1.12253950
  WF centre and spread    3  ( -0.710183,  0.710183, -0.710183 )     1.12253950
  WF centre and spread    4  ( -0.710183, -0.710183,  0.710183 )     1.12253951
  Sum of centres and spreads (  0.000000, -0.000000, -0.000000 )     4.49015801

     16    -0.792E-08     0.0000594561        4.4901577726       0.07  <-- CONV
        O_D=      0.0039516 O_OD=      0.6067388 O_TOT=      4.4901578 <-- SPRD
 Delta: O_D= -0.1433394E-06 O_OD=  0.1354173E-06 O_TOT= -0.7922190E-08 <-- DLTA
 ------------------------------------------------------------------------------
 Cycle:     17
  WF centre and spread    1  (  0.710183,  0.710183,  0.710183 )     1.12253950
  WF centre and spread    2  (  0.710183, -0.710183, -0.710183 )     1.12253950
  WF centre and spread    3  ( -0.710183,  0.710183, -0.710183 )     1.12253950
  WF centre and spread    4  ( -0.710183, -0.710183,  0.710183 )     1.12253951
  Sum of centres and spreads (  0.000000, -0.000000, -0.000000 )     4.49015801

     17    -0.196E-08     0.0000331909        4.4901577706       0.07  <-- CONV
        O_D=      0.0039516 O_OD=      0.6067388 O_TOT=      4.4901578 <-- SPRD
 Delta: O_D= -0.3442884E-07 O_OD=  0.3247019E-07 O_TOT= -0.1958649E-08 <-- DLTA
 ------------------------------------------------------------------------------
 Cycle:     18
  WF centre and spread    1  (  0.710183,  0.710183,  0.710183 )     1.12253950
  WF centre and spread    2  (  0.710183, -0.710183, -0.710183 )     1.12253950
  WF centre and spread    3  ( -0.710183,  0.710183, -0.710183 )     1.12253950
  WF centre and spread    4  ( -0.710183, -0.710183,  0.710183 )     1.12253951
  Sum of centres and spreads (  0.000000, -0.000000, -0.000000 )     4.49015801

     18    -0.589E-09     0.0000171006        4.4901577700       0.08  <-- CONV
        O_D=      0.0039516 O_OD=      0.6067388 O_TOT=      4.4901578 <-- SPRD
 Delta: O_D= -0.8952290E-08 O_OD=  0.8363035E-08 O_TOT= -0.5892549E-09 <-- DLTA
 ------------------------------------------------------------------------------
 Cycle:     19
  WF centre and spread    1  (  0.710183,  0.710183,  0.710183 )     1.12253950
  WF centre and spread    2  (  0.710183, -0.710183, -0.710183 )     1.12253950
  WF centre and spread    3  ( -0.710183,  0.710183, -0.710183 )     1.12253950
  WF centre and spread    4  ( -0.710183, -0.710183,  0.710183 )     1.12253951
  Sum of centres and spreads (  0.000000, -0.000000, -0.000000 )     4.49015801

     19    -0.140E-09     0.0000094295        4.4901577699       0.08  <-- CONV
        O_D=      0.0039516 O_OD=      0.6067388 O_TOT=      4.4901578 <-- SPRD
 Delta: O_D= -0.3656617E-08 O_OD=  0.3516904E-08 O_TOT= -0.1397131E-09 <-- DLTA
 ------------------------------------------------------------------------------
 Cycle:     20
  WF centre and spread    1  (  0.710183,  0.710183,  0.710183 )     1.12253950
  WF centre and spread    2  (  0.710183, -0.710183, -0.710183 )     1.12253950
  WF centre and spread    3  ( -0.710183,  0.710183, -0.710183 )     1.12253950
  WF centre and spread    4  ( -0.710183, -0.710183,  0.710183 )     1.12253951
  Sum of centres and spreads (  0.000000, -0.000000, -0.000000 )     4.49015801

     20    -0.138E-11     0.0000083416        4.4901577699       0.08  <-- CONV
        O_D=      0.0039516 O_OD=      0.6067388 O_TOT=      4.4901578 <-- SPRD
 Delta: O_D= -0.3846776E-10 O_OD=  0.3708722E-10 O_TOT= -0.1381117E-11 <-- DLTA
 ------------------------------------------------------------------------------
 Cycle:     21
  WF centre and spread    1  (  0.710183,  0.710183,  0.710183 )     1.12253950
  WF centre and spread    2  (  0.710183, -0.710183, -0.710183 )     1.12253950
  WF centre and spread    3  ( -0.710183,  0.710183, -0.710183 )     1.12253950
  WF centre and spread    4  ( -0.710183, -0.710183,  0.710183 )     1.12253951
  Sum of centres and spreads (  0.000000, -0.000000, -0.000000 )     4.49015801

     21    -0.812E-10     0.0000082843        4.4901577698       0.09  <-- CONV
        O_D=      0.0039516 O_OD=      0.6067388 O_TOT=      4.4901578 <-- SPRD
 Delta: O_D= -0.2487508E-08 O_OD=  0.2406261E-08 O_TOT= -0.8124612E-10 <-- DLTA
 ------------------------------------------------------------------------------
 Cycle:     22
  WF centre and spread    1  (  0.710183,  0.710183,  0.710183 )     1.12253950
  WF centre and spread    2  (  0.710183, -0.710183, -0.710183 )     1.12253950
  WF centre and spread    3  ( -0.710183,  0.710183, -0.710183 )     1.12253950
  WF centre and spread    4  ( -0.710183, -0.710183,  0.710183 )     1.12253951
  Sum of centres and spreads (  0.000000, -0.000000, -0.000000 )     4.49015801

     22    -0.399E-12     0.0000033282        4.4901577698       0.09  <-- CONV
        O_D=      0.0039516 O_OD=      0.6067388 O_TOT=      4.4901578 <-- SPRD
 Delta: O_D= -0.2938761E-10 O_OD=  0.2898881E-10 O_TOT= -0.3987921E-12 <-- DLTA
 ------------------------------------------------------------------------------
 Cycle:     23
  WF centre and spread    1  (  0.710183,  0.710183,  0.710183 )     1.12253950
  WF centre and spread    2  (  0.710183, -0.710183, -0.710183 )     1.12253950
  WF centre and spread    3  ( -0.710183,  0.710183, -0.710183 )     1.12253950
  WF centre and spread    4  ( -0.710183, -0.710183,  0.710183 )     1.12253951
  Sum of centres and spreads (  0.000000, -0.000000, -0.000000 )     4.49015801

     23    -0.130E-10     0.0000033039        4.4901577698       0.09  <-- CONV
        O_D=      0.0039516 O_OD=      0.6067388 O_TOT=      4.4901578 <-- SPRD
 Delta: O_D= -0.1101207E-08 O_OD=  0.1088246E-08 O_TOT= -0.1296119E-10 <-- DLTA
 ------------------------------------------------------------------------------
 Cycle:     24
  WF centre and spread    1  (  0.710183,  0.710183,  0.710183 )     1.12253950
  WF centre and spread    2  (  0.710183, -0.710183, -0.710183 )     1.12253950
  WF centre and spread    3  ( -0.710183,  0.710183, -0.710183 )     1.12253950
[...]
 Delta: O_D= -0.1463581E-10 O_OD=  0.1463363E-10 O_TOT= -0.1776357E-14 <-- DLTA
 ------------------------------------------------------------------------------
 Cycle:    277
  WF centre and spread    1  (  0.710183,  0.710183,  0.710183 )     1.12253950
  WF centre and spread    2  (  0.710183, -0.710183, -0.710183 )     1.12253950
  WF centre and spread    3  ( -0.710183,  0.710183, -0.710183 )     1.12253950
  WF centre and spread    4  ( -0.710183, -0.710183,  0.710183 )     1.12253951
  Sum of centres and spreads (  0.000000, -0.000000, -0.000000 )     4.49015801

    277    -0.178E-14     0.0000001073        4.4901577697       0.89  <-- CONV
        O_D=      0.0039516 O_OD=      0.6067388 O_TOT=      4.4901578 <-- SPRD
 Delta: O_D= -0.2431943E-11 O_OD=  0.2430056E-11 O_TOT= -0.1776357E-14 <-- DLTA
 ------------------------------------------------------------------------------
 Cycle:    278
  WF centre and spread    1  (  0.710183,  0.710183,  0.710183 )     1.12253950
  WF centre and spread    2  (  0.710183, -0.710183, -0.710183 )     1.12253950
  WF centre and spread    3  ( -0.710183,  0.710183, -0.710183 )     1.12253950
  WF centre and spread    4  ( -0.710183, -0.710183,  0.710183 )     1.12253951
  Sum of centres and spreads (  0.000000, -0.000000, -0.000000 )     4.49015801

    278     0.888E-15     0.0000001071        4.4901577697       0.89  <-- CONV
        O_D=      0.0039516 O_OD=      0.6067388 O_TOT=      4.4901578 <-- SPRD
 Delta: O_D= -0.2678699E-12 O_OD=  0.2692291E-12 O_TOT=  0.8881784E-15 <-- DLTA
 ------------------------------------------------------------------------------
 Cycle:    279
  WF centre and spread    1  (  0.710183,  0.710183,  0.710183 )     1.12253950
  WF centre and spread    2  (  0.710183, -0.710183, -0.710183 )     1.12253950
  WF centre and spread    3  ( -0.710183,  0.710183, -0.710183 )     1.12253950
  WF centre and spread    4  ( -0.710183, -0.710183,  0.710183 )     1.12253951
  Sum of centres and spreads (  0.000000, -0.000000, -0.000000 )     4.49015801

    279     0.000E+00     0.0000001071        4.4901577697       0.89  <-- CONV
        O_D=      0.0039516 O_OD=      0.6067388 O_TOT=      4.4901578 <-- SPRD
 Delta: O_D= -0.7276521E-11 O_OD=  0.7276291E-11 O_TOT=  0.0000000E+00 <-- DLTA
 ------------------------------------------------------------------------------
 Cycle:    280
  WF centre and spread    1  (  0.710183,  0.710183,  0.710183 )     1.12253950
  WF centre and spread    2  (  0.710183, -0.710183, -0.710183 )     1.12253950
  WF centre and spread    3  ( -0.710183,  0.710183, -0.710183 )     1.12253950
  WF centre and spread    4  ( -0.710183, -0.710183,  0.710183 )     1.12253951
  Sum of centres and spreads (  0.000000, -0.000000, -0.000000 )     4.49015801

    280    -0.266E-14     0.0000001065        4.4901577697       0.90  <-- CONV
        O_D=      0.0039516 O_OD=      0.6067388 O_TOT=      4.4901578 <-- SPRD
 Delta: O_D= -0.2034378E-11 O_OD=  0.2032485E-11 O_TOT= -0.2664535E-14 <-- DLTA
 ------------------------------------------------------------------------------
 Cycle:    281
  WF centre and spread    1  (  0.710183,  0.710183,  0.710183 )     1.12253950
  WF centre and spread    2  (  0.710183, -0.710183, -0.710183 )     1.12253950
  WF centre and spread    3  ( -0.710183,  0.710183, -0.710183 )     1.12253950
  WF centre and spread    4  ( -0.710183, -0.710183,  0.710183 )     1.12253951
  Sum of centres and spreads (  0.000000, -0.000000, -0.000000 )     4.49015801

    281     0.799E-14     0.0000001064        4.4901577697       0.90  <-- CONV
        O_D=      0.0039516 O_OD=      0.6067388 O_TOT=      4.4901578 <-- SPRD
 Delta: O_D= -0.2271314E-11 O_OD=  0.2278622E-11 O_TOT=  0.7993606E-14 <-- DLTA
 ------------------------------------------------------------------------------
 Cycle:    282
  WF centre and spread    1  (  0.710183,  0.710183,  0.710183 )     1.12253950
  WF centre and spread    2  (  0.710183, -0.710183, -0.710183 )     1.12253950
  WF centre and spread    3  ( -0.710183,  0.710183, -0.710183 )     1.12253950
  WF centre and spread    4  ( -0.710183, -0.710183,  0.710183 )     1.12253951
  Sum of centres and spreads (  0.000000, -0.000000, -0.000000 )     4.49015801

    282    -0.107E-13     0.0000001062        4.4901577697       0.90  <-- CONV
        O_D=      0.0039516 O_OD=      0.6067388 O_TOT=      4.4901578 <-- SPRD
 Delta: O_D= -0.1436261E-10 O_OD=  0.1435185E-10 O_TOT= -0.1065814E-13 <-- DLTA
 ------------------------------------------------------------------------------
 Cycle:    283
  WF centre and spread    1  (  0.710183,  0.710183,  0.710183 )     1.12253950
  WF centre and spread    2  (  0.710183, -0.710183, -0.710183 )     1.12253950
  WF centre and spread    3  ( -0.710183,  0.710183, -0.710183 )     1.12253950
  WF centre and spread    4  ( -0.710183, -0.710183,  0.710183 )     1.12253951
  Sum of centres and spreads (  0.000000, -0.000000, -0.000000 )     4.49015801

    283    -0.888E-15     0.0000001050        4.4901577697       0.91  <-- CONV
        O_D=      0.0039516 O_OD=      0.6067388 O_TOT=      4.4901578 <-- SPRD
 Delta: O_D= -0.5111276E-13 O_OD=  0.5029310E-13 O_TOT= -0.8881784E-15 <-- DLTA
 ------------------------------------------------------------------------------
 Cycle:    284
  WF centre and spread    1  (  0.710183,  0.710183,  0.710183 )     1.12253950
  WF centre and spread    2  (  0.710183, -0.710183, -0.710183 )     1.12253950
  WF centre and spread    3  ( -0.710183,  0.710183, -0.710183 )     1.12253950
  WF centre and spread    4  ( -0.710183, -0.710183,  0.710183 )     1.12253951
  Sum of centres and spreads (  0.000000, -0.000000, -0.000000 )     4.49015801

    284     0.000E+00     0.0000001050        4.4901577697       0.91  <-- CONV
        O_D=      0.0039516 O_OD=      0.6067388 O_TOT=      4.4901578 <-- SPRD
 Delta: O_D= -0.3621756E-12 O_OD=  0.3624878E-12 O_TOT=  0.0000000E+00 <-- DLTA
 ------------------------------------------------------------------------------
 Cycle:    285
  WF centre and spread    1  (  0.710183,  0.710183,  0.710183 )     1.12253950
  WF centre and spread    2  (  0.710183, -0.710183, -0.710183 )     1.12253950
  WF centre and spread    3  ( -0.710183,  0.710183, -0.710183 )     1.12253950
  WF centre and spread    4  ( -0.710183, -0.710183,  0.710183 )     1.12253951
  Sum of centres and spreads (  0.000000, -0.000000, -0.000000 )     4.49015801

    285     0.444E-14     0.0000001050        4.4901577697       0.91  <-- CONV
        O_D=      0.0039516 O_OD=      0.6067388 O_TOT=      4.4901578 <-- SPRD
 Delta: O_D= -0.4755059E-12 O_OD=  0.4797274E-12 O_TOT=  0.4440892E-14 <-- DLTA
 ------------------------------------------------------------------------------
 Cycle:    286
  WF centre and spread    1  (  0.710183,  0.710183,  0.710183 )     1.12253950
  WF centre and spread    2  (  0.710183, -0.710183, -0.710183 )     1.12253950
  WF centre and spread    3  ( -0.710183,  0.710183, -0.710183 )     1.12253950
  WF centre and spread    4  ( -0.710183, -0.710183,  0.710183 )     1.12253951
  Sum of centres and spreads (  0.000000, -0.000000, -0.000000 )     4.49015801

    286    -0.622E-14     0.0000001050        4.4901577697       0.92  <-- CONV
        O_D=      0.0039516 O_OD=      0.6067388 O_TOT=      4.4901578 <-- SPRD
 Delta: O_D= -0.1254775E-11 O_OD=  0.1249112E-11 O_TOT= -0.6217249E-14 <-- DLTA
 ------------------------------------------------------------------------------
 Cycle:    287
  WF centre and spread    1  (  0.710183,  0.710183,  0.710183 )     1.12253950
  WF centre and spread    2  (  0.710183, -0.710183, -0.710183 )     1.12253950
  WF centre and spread    3  ( -0.710183,  0.710183, -0.710183 )     1.12253950
  WF centre and spread    4  ( -0.710183, -0.710183,  0.710183 )     1.12253951
  Sum of centres and spreads (  0.000000, -0.000000, -0.000000 )     4.49015801

    287     0.888E-14     0.0000001049        4.4901577697       0.92  <-- CONV
        O_D=      0.0039516 O_OD=      0.6067388 O_TOT=      4.4901578 <-- SPRD
 Delta: O_D= -0.2216439E-11 O_OD=  0.2224554E-11 O_TOT=  0.8881784E-14 <-- DLTA
 ------------------------------------------------------------------------------
 Cycle:    288
  WF centre and spread    1  (  0.710183,  0.710183,  0.710183 )     1.12253950
  WF centre and spread    2  (  0.710183, -0.710183, -0.710183 )     1.12253950
  WF centre and spread    3  ( -0.710183,  0.710183, -0.710183 )     1.12253950
  WF centre and spread    4  ( -0.710183, -0.710183,  0.710183 )     1.12253951
  Sum of centres and spreads (  0.000000, -0.000000, -0.000000 )     4.49015801

    288    -0.533E-14     0.0000001047        4.4901577697       0.92  <-- CONV
        O_D=      0.0039516 O_OD=      0.6067388 O_TOT=      4.4901578 <-- SPRD
 Delta: O_D= -0.1422216E-10 O_OD=  0.1421674E-10 O_TOT= -0.5329071E-14 <-- DLTA
 ------------------------------------------------------------------------------
 Cycle:    289
  WF centre and spread    1  (  0.710183,  0.710183,  0.710183 )     1.12253950
  WF centre and spread    2  (  0.710183, -0.710183, -0.710183 )     1.12253950
  WF centre and spread    3  ( -0.710183,  0.710183, -0.710183 )     1.12253950
  WF centre and spread    4  ( -0.710183, -0.710183,  0.710183 )     1.12253951
  Sum of centres and spreads (  0.000000, -0.000000, -0.000000 )     4.49015801

    289    -0.533E-14     0.0000001035        4.4901577697       0.93  <-- CONV
        O_D=      0.0039516 O_OD=      0.6067388 O_TOT=      4.4901578 <-- SPRD
 Delta: O_D= -0.2352175E-11 O_OD=  0.2347234E-11 O_TOT= -0.5329071E-14 <-- DLTA
 ------------------------------------------------------------------------------
 Cycle:    290
  WF centre and spread    1  (  0.710183,  0.710183,  0.710183 )     1.12253950
  WF centre and spread    2  (  0.710183, -0.710183, -0.710183 )     1.12253950
  WF centre and spread    3  ( -0.710183,  0.710183, -0.710183 )     1.12253950
  WF centre and spread    4  ( -0.710183, -0.710183,  0.710183 )     1.12253951
  Sum of centres and spreads (  0.000000, -0.000000, -0.000000 )     4.49015801

    290     0.622E-14     0.0000001034        4.4901577697       0.93  <-- CONV
        O_D=      0.0039516 O_OD=      0.6067388 O_TOT=      4.4901578 <-- SPRD
 Delta: O_D= -0.9608026E-12 O_OD=  0.9665602E-12 O_TOT=  0.6217249E-14 <-- DLTA
 ------------------------------------------------------------------------------
 Cycle:    291
  WF centre and spread    1  (  0.710183,  0.710183,  0.710183 )     1.12253950
  WF centre and spread    2  (  0.710183, -0.710183, -0.710183 )     1.12253950
  WF centre and spread    3  ( -0.710183,  0.710183, -0.710183 )     1.12253950
  WF centre and spread    4  ( -0.710183, -0.710183,  0.710183 )     1.12253951
  Sum of centres and spreads (  0.000000, -0.000000, -0.000000 )     4.49015801

    291    -0.888E-15     0.0000001033        4.4901577697       0.93  <-- CONV
        O_D=      0.0039516 O_OD=      0.6067388 O_TOT=      4.4901578 <-- SPRD
 Delta: O_D= -0.7031499E-11 O_OD=  0.7031375E-11 O_TOT= -0.8881784E-15 <-- DLTA
 ------------------------------------------------------------------------------
 Cycle:    292
  WF centre and spread    1  (  0.710183,  0.710183,  0.710183 )     1.12253950
  WF centre and spread    2  (  0.710183, -0.710183, -0.710183 )     1.12253950
  WF centre and spread    3  ( -0.710183,  0.710183, -0.710183 )     1.12253950
  WF centre and spread    4  ( -0.710183, -0.710183,  0.710183 )     1.12253951
  Sum of centres and spreads (  0.000000, -0.000000, -0.000000 )     4.49015801

    292     0.888E-15     0.0000001027        4.4901577697       0.93  <-- CONV
        O_D=      0.0039516 O_OD=      0.6067388 O_TOT=      4.4901578 <-- SPRD
 Delta: O_D= -0.4645237E-11 O_OD=  0.4645506E-11 O_TOT=  0.8881784E-15 <-- DLTA
 ------------------------------------------------------------------------------
 Cycle:    293
  WF centre and spread    1  (  0.710183,  0.710183,  0.710183 )     1.12253950
  WF centre and spread    2  (  0.710183, -0.710183, -0.710183 )     1.12253950
  WF centre and spread    3  ( -0.710183,  0.710183, -0.710183 )     1.12253950
  WF centre and spread    4  ( -0.710183, -0.710183,  0.710183 )     1.12253951
  Sum of centres and spreads (  0.000000, -0.000000, -0.000000 )     4.49015801

    293    -0.142E-13     0.0000001024        4.4901577697       0.94  <-- CONV
        O_D=      0.0039516 O_OD=      0.6067388 O_TOT=      4.4901578 <-- SPRD
 Delta: O_D= -0.1155072E-10 O_OD=  0.1153644E-10 O_TOT= -0.1421085E-13 <-- DLTA
 ------------------------------------------------------------------------------
 Cycle:    294
  WF centre and spread    1  (  0.710183,  0.710183,  0.710183 )     1.12253950
  WF centre and spread    2  (  0.710183, -0.710183, -0.710183 )     1.12253950
  WF centre and spread    3  ( -0.710183,  0.710183, -0.710183 )     1.12253950
  WF centre and spread    4  ( -0.710183, -0.710183,  0.710183 )     1.12253951
  Sum of centres and spreads (  0.000000, -0.000000, -0.000000 )     4.49015801

    294     0.799E-14     0.0000001014        4.4901577697       0.94  <-- CONV
        O_D=      0.0039516 O_OD=      0.6067388 O_TOT=      4.4901578 <-- SPRD
 Delta: O_D= -0.1936486E-11 O_OD=  0.1944334E-11 O_TOT=  0.7993606E-14 <-- DLTA
 ------------------------------------------------------------------------------
 Cycle:    295
  WF centre and spread    1  (  0.710183,  0.710183,  0.710183 )     1.12253950
  WF centre and spread    2  (  0.710183, -0.710183, -0.710183 )     1.12253950
  WF centre and spread    3  ( -0.710183,  0.710183, -0.710183 )     1.12253950
  WF centre and spread    4  ( -0.710183, -0.710183,  0.710183 )     1.12253951
  Sum of centres and spreads (  0.000000, -0.000000, -0.000000 )     4.49015801

    295    -0.178E-14     0.0000001013        4.4901577697       0.94  <-- CONV
        O_D=      0.0039516 O_OD=      0.6067388 O_TOT=      4.4901578 <-- SPRD
 Delta: O_D= -0.2880291E-12 O_OD=  0.2871037E-12 O_TOT= -0.1776357E-14 <-- DLTA
 ------------------------------------------------------------------------------
 Cycle:    296
  WF centre and spread    1  (  0.710183,  0.710183,  0.710183 )     1.12253950
  WF centre and spread    2  (  0.710183, -0.710183, -0.710183 )     1.12253950
  WF centre and spread    3  ( -0.710183,  0.710183, -0.710183 )     1.12253950
  WF centre and spread    4  ( -0.710183, -0.710183,  0.710183 )     1.12253951
  Sum of centres and spreads (  0.000000, -0.000000, -0.000000 )     4.49015801

    296    -0.888E-15     0.0000001013        4.4901577697       0.95  <-- CONV
        O_D=      0.0039516 O_OD=      0.6067388 O_TOT=      4.4901578 <-- SPRD
 Delta: O_D= -0.1771135E-12 O_OD=  0.1757483E-12 O_TOT= -0.8881784E-15 <-- DLTA
 ------------------------------------------------------------------------------
 Cycle:    297
  WF centre and spread    1  (  0.710183,  0.710183,  0.710183 )     1.12253950
  WF centre and spread    2  (  0.710183, -0.710183, -0.710183 )     1.12253950
  WF centre and spread    3  ( -0.710183,  0.710183, -0.710183 )     1.12253950
  WF centre and spread    4  ( -0.710183, -0.710183,  0.710183 )     1.12253951
  Sum of centres and spreads (  0.000000, -0.000000, -0.000000 )     4.49015801

    297     0.355E-14     0.0000001013        4.4901577697       0.95  <-- CONV
        O_D=      0.0039516 O_OD=      0.6067388 O_TOT=      4.4901578 <-- SPRD
 Delta: O_D= -0.4931047E-12 O_OD=  0.4967138E-12 O_TOT=  0.3552714E-14 <-- DLTA
 ------------------------------------------------------------------------------
 Cycle:    298
  WF centre and spread    1  (  0.710183,  0.710183,  0.710183 )     1.12253950
  WF centre and spread    2  (  0.710183, -0.710183, -0.710183 )     1.12253950
  WF centre and spread    3  ( -0.710183,  0.710183, -0.710183 )     1.12253950
  WF centre and spread    4  ( -0.710183, -0.710183,  0.710183 )     1.12253951
  Sum of centres and spreads (  0.000000, -0.000000, -0.000000 )     4.49015801

    298     0.533E-14     0.0000001012        4.4901577697       0.96  <-- CONV
        O_D=      0.0039516 O_OD=      0.6067388 O_TOT=      4.4901578 <-- SPRD
 Delta: O_D= -0.1839166E-11 O_OD=  0.1844747E-11 O_TOT=  0.5329071E-14 <-- DLTA
 ------------------------------------------------------------------------------
 Cycle:    299
  WF centre and spread    1  (  0.710183,  0.710183,  0.710183 )     1.12253950
  WF centre and spread    2  (  0.710183, -0.710183, -0.710183 )     1.12253950
  WF centre and spread    3  ( -0.710183,  0.710183, -0.710183 )     1.12253950
  WF centre and spread    4  ( -0.710183, -0.710183,  0.710183 )     1.12253951
  Sum of centres and spreads (  0.000000, -0.000000, -0.000000 )     4.49015801

    299    -0.799E-14     0.0000001011        4.4901577697       0.96  <-- CONV
        O_D=      0.0039516 O_OD=      0.6067388 O_TOT=      4.4901578 <-- SPRD
 Delta: O_D= -0.1147839E-10 O_OD=  0.1146994E-10 O_TOT= -0.7993606E-14 <-- DLTA
 ------------------------------------------------------------------------------
 Cycle:    300
  WF centre and spread    1  (  0.710183,  0.710183,  0.710183 )     1.12253950
  WF centre and spread    2  (  0.710183, -0.710183, -0.710183 )     1.12253950
  WF centre and spread    3  ( -0.710183,  0.710183, -0.710183 )     1.12253950
  WF centre and spread    4  ( -0.710183, -0.710183,  0.710183 )     1.12253951
  Sum of centres and spreads (  0.000000, -0.000000, -0.000000 )     4.49015801

    300     0.000E+00     0.0000001002        4.4901577697       0.96  <-- CONV
        O_D=      0.0039516 O_OD=      0.6067388 O_TOT=      4.4901578 <-- SPRD
 Delta: O_D= -0.3335588E-11 O_OD=  0.3335998E-11 O_TOT=  0.0000000E+00 <-- DLTA
 ------------------------------------------------------------------------------

 Writing checkpoint file sic.chk... done

 Final State
  WF centre and spread    1  (  0.710183,  0.710183,  0.710183 )     1.12253950
  WF centre and spread    2  (  0.710183, -0.710183, -0.710183 )     1.12253950
  WF centre and spread    3  ( -0.710183,  0.710183, -0.710183 )     1.12253950
  WF centre and spread    4  ( -0.710183, -0.710183,  0.710183 )     1.12253951
  Sum of centres and spreads (  0.000000, -0.000000, -0.000000 )     4.49015801

         Spreads (Ang^2)       Omega I      =     3.879467379
        ================       Omega D      =     0.003951579
                               Omega OD     =     0.606738812
    Final Spread (Ang^2)       Omega Total  =     4.490157770
 ------------------------------------------------------------------------------

 Writing checkpoint file sic.chk... done

 Time for wannierise            0.935 (sec)
 *---------------------------------------------------------------------------*
 |                               PLOTTING                                    |
 *---------------------------------------------------------------------------*

 Time for plotting              0.123 (sec)
 Total Execution Time           1.410 (sec)

 *===========================================================================*
 |                             TIMING INFORMATION                            |
 *===========================================================================*
 |    Tag                                                Ncalls      Time (s)|
 |---------------------------------------------------------------------------|
 |kmesh: get                                        :         2         0.678|
 |kmesh: write                                      :         1         0.002|
 |overlap: allocate                                 :         1         0.000|
 |wann: main                                        :         1         0.935|
 |plot: main                                        :         1         0.123|
 *---------------------------------------------------------------------------*

 All done: wannier90 exiting
