 written on 15Jun2021 at 22:07:31 
         216           8
   -0.240247    0.240247   -0.240247    2.165674
    0.240247    0.240247    0.240247    2.165674
   -0.240247   -0.240247    0.240247    2.165674
   -0.240247    0.240247    0.240247    2.165674
    0.240247   -0.240247    0.240247    2.165674
   -0.240247   -0.240247   -0.240247    2.165674
    0.240247    0.240247   -0.240247    2.165674
    0.240247   -0.240247   -0.240247    2.165674
    0.240247   -0.240247    0.240247    2.165674
   -0.240247    0.240247   -0.240247    2.165674
    0.240247    0.240247    0.240247    2.165674
   -0.240247   -0.240247    0.240247    2.165674
   -0.240247    0.240247    0.240247    2.165674
   -0.240247   -0.240247   -0.240247    2.165674
    0.240247    0.240247   -0.240247    2.165674
    0.240247   -0.240247   -0.240247    2.165674
    0.240247   -0.240247    0.240247    2.165674
   -0.240247    0.240247   -0.240247    2.165674
    0.240247    0.240247    0.240247    2.165674
   -0.240247   -0.240247    0.240247    2.165674
   -0.240247    0.240247    0.240247    2.165674
   -0.240247   -0.240247   -0.240247    2.165674
    0.240247    0.240247   -0.240247    2.165674
    0.240247   -0.240247   -0.240247    2.165674
    0.240247   -0.240247    0.240247    2.165674
   -0.240247    0.240247   -0.240247    2.165674
    0.240247    0.240247    0.240247    2.165674
   -0.240247   -0.240247    0.240247    2.165674
   -0.240247    0.240247    0.240247    2.165674
   -0.240247   -0.240247   -0.240247    2.165674
    0.240247    0.240247   -0.240247    2.165674
    0.240247   -0.240247   -0.240247    2.165674
    0.240247   -0.240247    0.240247    2.165674
   -0.240247    0.240247   -0.240247    2.165674
    0.240247    0.240247    0.240247    2.165674
   -0.240247   -0.240247    0.240247    2.165674
   -0.240247    0.240247    0.240247    2.165674
   -0.240247   -0.240247   -0.240247    2.165674
    0.240247    0.240247   -0.240247    2.165674
    0.240247   -0.240247   -0.240247    2.165674
    0.240247   -0.240247    0.240247    2.165674
    0.240247    0.240247    0.240247    2.165674
   -0.240247   -0.240247    0.240247    2.165674
   -0.240247    0.240247   -0.240247    2.165674
   -0.240247    0.240247    0.240247    2.165674
   -0.240247   -0.240247   -0.240247    2.165674
    0.240247    0.240247   -0.240247    2.165674
    0.240247   -0.240247   -0.240247    2.165674
   -0.240247   -0.240247   -0.240247    2.165674
   -0.240247    0.240247   -0.240247    2.165674
    0.240247    0.240247    0.240247    2.165674
   -0.240247   -0.240247    0.240247    2.165674
   -0.240247    0.240247    0.240247    2.165674
    0.240247   -0.240247    0.240247    2.165674
    0.240247    0.240247   -0.240247    2.165674
    0.240247   -0.240247   -0.240247    2.165674
   -0.240247   -0.240247   -0.240247    2.165674
    0.240247   -0.240247    0.240247    2.165674
   -0.240247    0.240247   -0.240247    2.165674
    0.240247    0.240247    0.240247    2.165674
   -0.240247   -0.240247    0.240247    2.165674
   -0.240247    0.240247    0.240247    2.165674
    0.240247   -0.240247   -0.240247    2.165674
    0.240247    0.240247   -0.240247    2.165674
   -0.240247   -0.240247   -0.240247    2.165674
    0.240247   -0.240247    0.240247    2.165674
   -0.240247    0.240247   -0.240247    2.165674
    0.240247    0.240247    0.240247    2.165674
   -0.240247   -0.240247    0.240247    2.165674
   -0.240247    0.240247    0.240247    2.165674
    0.240247   -0.240247   -0.240247    2.165674
    0.240247    0.240247   -0.240247    2.165674
   -0.240247   -0.240247   -0.240247    2.165674
    0.240247   -0.240247    0.240247    2.165674
   -0.240247    0.240247   -0.240247    2.165674
    0.240247    0.240247    0.240247    2.165674
   -0.240247   -0.240247    0.240247    2.165674
   -0.240247    0.240247    0.240247    2.165674
    0.240247   -0.240247   -0.240247    2.165674
    0.240247    0.240247   -0.240247    2.165674
   -0.240247   -0.240247   -0.240247    2.165674
    0.240247   -0.240247    0.240247    2.165674
   -0.240247    0.240247   -0.240247    2.165674
    0.240247    0.240247    0.240247    2.165674
   -0.240247   -0.240247    0.240247    2.165674
   -0.240247    0.240247    0.240247    2.165674
    0.240247   -0.240247   -0.240247    2.165674
    0.240247    0.240247   -0.240247    2.165674
   -0.240247   -0.240247   -0.240247    2.165674
    0.240247   -0.240247    0.240247    2.165674
    0.240247    0.240247    0.240247    2.165674
   -0.240247   -0.240247    0.240247    2.165674
   -0.240247    0.240247   -0.240247    2.165674
   -0.240247    0.240247    0.240247    2.165674
    0.240247   -0.240247   -0.240247    2.165674
    0.240247    0.240247   -0.240247    2.165674
   -0.240247   -0.240247   -0.240247    2.165674
   -0.240247    0.240247   -0.240247    2.165674
    0.240247    0.240247    0.240247    2.165674
   -0.240247   -0.240247    0.240247    2.165674
   -0.240247    0.240247    0.240247    2.165674
    0.240247   -0.240247    0.240247    2.165674
    0.240247    0.240247   -0.240247    2.165674
    0.240247   -0.240247   -0.240247    2.165674
   -0.240247   -0.240247   -0.240247    2.165674
    0.240247   -0.240247    0.240247    2.165674
   -0.240247    0.240247   -0.240247    2.165674
    0.240247    0.240247    0.240247    2.165674
   -0.240247   -0.240247    0.240247    2.165674
   -0.240247    0.240247    0.240247    2.165674
    0.240247   -0.240247   -0.240247    2.165674
    0.240247    0.240247   -0.240247    2.165674
   -0.240247   -0.240247   -0.240247    2.165674
    0.240247   -0.240247    0.240247    2.165674
   -0.240247    0.240247   -0.240247    2.165674
    0.240247    0.240247    0.240247    2.165674
   -0.240247   -0.240247    0.240247    2.165674
   -0.240247    0.240247    0.240247    2.165674
    0.240247   -0.240247   -0.240247    2.165674
    0.240247    0.240247   -0.240247    2.165674
   -0.240247   -0.240247   -0.240247    2.165674
    0.240247   -0.240247    0.240247    2.165674
   -0.240247    0.240247   -0.240247    2.165674
    0.240247    0.240247    0.240247    2.165674
   -0.240247   -0.240247    0.240247    2.165674
   -0.240247    0.240247    0.240247    2.165674
    0.240247   -0.240247   -0.240247    2.165674
    0.240247    0.240247   -0.240247    2.165674
   -0.240247   -0.240247   -0.240247    2.165674
    0.240247   -0.240247    0.240247    2.165674
   -0.240247    0.240247   -0.240247    2.165674
    0.240247    0.240247    0.240247    2.165674
   -0.240247   -0.240247    0.240247    2.165674
   -0.240247    0.240247    0.240247    2.165674
    0.240247   -0.240247   -0.240247    2.165674
    0.240247    0.240247   -0.240247    2.165674
   -0.240247   -0.240247   -0.240247    2.165674
    0.240247   -0.240247    0.240247    2.165674
    0.240247    0.240247    0.240247    2.165674
   -0.240247   -0.240247    0.240247    2.165674
   -0.240247    0.240247   -0.240247    2.165674
   -0.240247    0.240247    0.240247    2.165674
    0.240247   -0.240247   -0.240247    2.165674
    0.240247    0.240247   -0.240247    2.165674
   -0.240247   -0.240247   -0.240247    2.165674
   -0.240247    0.240247   -0.240247    2.165674
    0.240247    0.240247    0.240247    2.165674
   -0.240247   -0.240247    0.240247    2.165674
   -0.240247    0.240247    0.240247    2.165674
    0.240247   -0.240247    0.240247    2.165674
    0.240247    0.240247   -0.240247    2.165674
    0.240247   -0.240247   -0.240247    2.165674
   -0.240247   -0.240247   -0.240247    2.165674
    0.240247   -0.240247    0.240247    2.165674
   -0.240247    0.240247   -0.240247    2.165674
    0.240247    0.240247    0.240247    2.165674
   -0.240247   -0.240247    0.240247    2.165674
   -0.240247    0.240247    0.240247    2.165674
    0.240247   -0.240247   -0.240247    2.165674
    0.240247    0.240247   -0.240247    2.165674
   -0.240247   -0.240247   -0.240247    2.165674
    0.240247   -0.240247    0.240247    2.165674
   -0.240247    0.240247   -0.240247    2.165674
    0.240247    0.240247    0.240247    2.165674
   -0.240247   -0.240247    0.240247    2.165674
   -0.240247    0.240247    0.240247    2.165674
    0.240247   -0.240247   -0.240247    2.165674
    0.240247    0.240247   -0.240247    2.165674
   -0.240247   -0.240247   -0.240247    2.165674
    0.240247   -0.240247    0.240247    2.165674
   -0.240247    0.240247   -0.240247    2.165674
    0.240247    0.240247    0.240247    2.165674
   -0.240247   -0.240247    0.240247    2.165674
   -0.240247    0.240247    0.240247    2.165674
    0.240247   -0.240247   -0.240247    2.165674
    0.240247    0.240247   -0.240247    2.165674
   -0.240247   -0.240247   -0.240247    2.165674
    0.240247   -0.240247    0.240247    2.165674
   -0.240247    0.240247   -0.240247    2.165674
    0.240247    0.240247    0.240247    2.165674
   -0.240247   -0.240247    0.240247    2.165674
   -0.240247    0.240247    0.240247    2.165674
    0.240247   -0.240247   -0.240247    2.165674
    0.240247    0.240247   -0.240247    2.165674
   -0.240247   -0.240247   -0.240247    2.165674
    0.240247   -0.240247    0.240247    2.165674
    0.240247    0.240247    0.240247    2.165674
   -0.240247   -0.240247    0.240247    2.165674
   -0.240247    0.240247   -0.240247    2.165674
   -0.240247    0.240247    0.240247    2.165674
    0.240247   -0.240247   -0.240247    2.165674
    0.240247    0.240247   -0.240247    2.165674
   -0.240247   -0.240247   -0.240247    2.165674
   -0.240247    0.240247   -0.240247    2.165674
    0.240247    0.240247    0.240247    2.165674
   -0.240247   -0.240247    0.240247    2.165674
   -0.240247    0.240247    0.240247    2.165674
    0.240247   -0.240247    0.240247    2.165674
    0.240247    0.240247   -0.240247    2.165674
    0.240247   -0.240247   -0.240247    2.165674
   -0.240247   -0.240247   -0.240247    2.165674
    0.240247   -0.240247    0.240247    2.165674
   -0.240247    0.240247   -0.240247    2.165674
    0.240247    0.240247    0.240247    2.165674
   -0.240247   -0.240247    0.240247    2.165674
   -0.240247    0.240247    0.240247    2.165674
    0.240247   -0.240247   -0.240247    2.165674
    0.240247    0.240247   -0.240247    2.165674
   -0.240247   -0.240247   -0.240247    2.165674
    0.240247   -0.240247    0.240247    2.165674
   -0.240247    0.240247   -0.240247    2.165674
    0.240247    0.240247    0.240247    2.165674
   -0.240247   -0.240247    0.240247    2.165674
   -0.240247    0.240247    0.240247    2.165674
    0.240247   -0.240247   -0.240247    2.165674
    0.240247    0.240247   -0.240247    2.165674
   -0.240247   -0.240247   -0.240247    2.165674
    0.240247   -0.240247    0.240247    2.165674
   -0.240247    0.240247   -0.240247    2.165674
    0.240247    0.240247    0.240247    2.165674
   -0.240247   -0.240247    0.240247    2.165674
   -0.240247    0.240247    0.240247    2.165674
    0.240247   -0.240247   -0.240247    2.165674
    0.240247    0.240247   -0.240247    2.165674
   -0.240247   -0.240247   -0.240247    2.165674
    0.240247   -0.240247    0.240247    2.165674
   -0.240247    0.240247   -0.240247    2.165674
    0.240247    0.240247    0.240247    2.165674
   -0.240247   -0.240247    0.240247    2.165674
   -0.240247    0.240247    0.240247    2.165674
    0.240247   -0.240247   -0.240247    2.165674
    0.240247    0.240247   -0.240247    2.165674
   -0.240247   -0.240247   -0.240247    2.165674
    0.240247   -0.240247    0.240247    2.165674
    0.240247    0.240247    0.240247    2.165674
   -0.240247   -0.240247    0.240247    2.165674
   -0.240247    0.240247   -0.240247    2.165674
   -0.240247    0.240247    0.240247    2.165674
    0.240247   -0.240247   -0.240247    2.165674
    0.240247    0.240247   -0.240247    2.165674
   -0.240247   -0.240247   -0.240247    2.165674
   -0.240247    0.240247   -0.240247    2.165674
   -0.240247   -0.240247    0.240247    2.165674
    0.240247    0.240247    0.240247    2.165674
   -0.240247    0.240247    0.240247    2.165674
    0.240247   -0.240247    0.240247    2.165674
    0.240247    0.240247   -0.240247    2.165674
    0.240247   -0.240247   -0.240247    2.165674
   -0.240247   -0.240247   -0.240247    2.165674
    0.240247   -0.240247    0.240247    2.165674
   -0.240247    0.240247   -0.240247    2.165674
   -0.240247   -0.240247    0.240247    2.165674
    0.240247    0.240247    0.240247    2.165674
   -0.240247    0.240247    0.240247    2.165674
    0.240247   -0.240247   -0.240247    2.165674
    0.240247    0.240247   -0.240247    2.165674
   -0.240247   -0.240247   -0.240247    2.165674
    0.240247   -0.240247    0.240247    2.165674
   -0.240247    0.240247   -0.240247    2.165674
   -0.240247   -0.240247    0.240247    2.165674
    0.240247    0.240247    0.240247    2.165674
   -0.240247    0.240247    0.240247    2.165674
    0.240247   -0.240247   -0.240247    2.165674
    0.240247    0.240247   -0.240247    2.165674
   -0.240247   -0.240247   -0.240247    2.165674
    0.240247   -0.240247    0.240247    2.165674
   -0.240247    0.240247   -0.240247    2.165674
   -0.240247   -0.240247    0.240247    2.165674
    0.240247    0.240247    0.240247    2.165674
   -0.240247    0.240247    0.240247    2.165674
    0.240247   -0.240247   -0.240247    2.165674
    0.240247    0.240247   -0.240247    2.165674
   -0.240247   -0.240247   -0.240247    2.165674
    0.240247   -0.240247    0.240247    2.165674
   -0.240247    0.240247   -0.240247    2.165674
   -0.240247   -0.240247    0.240247    2.165674
    0.240247    0.240247    0.240247    2.165674
   -0.240247    0.240247    0.240247    2.165674
    0.240247   -0.240247   -0.240247    2.165674
    0.240247    0.240247   -0.240247    2.165674
   -0.240247   -0.240247   -0.240247    2.165674
    0.240247   -0.240247    0.240247    2.165674
   -0.240247   -0.240247    0.240247    2.165674
    0.240247    0.240247    0.240247    2.165674
   -0.240247    0.240247   -0.240247    2.165674
    0.240247   -0.240247   -0.240247    2.165674
    0.240247    0.240247   -0.240247    2.165674
   -0.240247    0.240247    0.240247    2.165674
    0.240247    0.240247   -0.240247    2.165674
   -0.240247    0.240247   -0.240247    2.165674
    0.240247    0.240247    0.240247    2.165674
   -0.240247   -0.240247    0.240247    2.165674
   -0.240247    0.240247    0.240247    2.165674
    0.240247   -0.240247    0.240247    2.165674
   -0.240247   -0.240247   -0.240247    2.165674
    0.240247   -0.240247   -0.240247    2.165674
    0.240247    0.240247   -0.240247    2.165674
    0.240247   -0.240247    0.240247    2.165674
   -0.240247    0.240247   -0.240247    2.165674
    0.240247    0.240247    0.240247    2.165674
   -0.240247   -0.240247    0.240247    2.165674
   -0.240247    0.240247    0.240247    2.165674
    0.240247   -0.240247   -0.240247    2.165674
   -0.240247   -0.240247   -0.240247    2.165674
    0.240247    0.240247   -0.240247    2.165674
    0.240247   -0.240247    0.240247    2.165674
   -0.240247    0.240247   -0.240247    2.165674
    0.240247    0.240247    0.240247    2.165674
   -0.240247   -0.240247    0.240247    2.165674
   -0.240247    0.240247    0.240247    2.165674
    0.240247   -0.240247   -0.240247    2.165674
   -0.240247   -0.240247   -0.240247    2.165674
    0.240247    0.240247   -0.240247    2.165674
    0.240247   -0.240247    0.240247    2.165674
   -0.240247    0.240247   -0.240247    2.165674
    0.240247    0.240247    0.240247    2.165674
   -0.240247   -0.240247    0.240247    2.165674
   -0.240247    0.240247    0.240247    2.165674
    0.240247   -0.240247   -0.240247    2.165674
   -0.240247   -0.240247   -0.240247    2.165674
    0.240247    0.240247   -0.240247    2.165674
    0.240247   -0.240247    0.240247    2.165674
   -0.240247    0.240247   -0.240247    2.165674
    0.240247    0.240247    0.240247    2.165674
   -0.240247   -0.240247    0.240247    2.165674
   -0.240247    0.240247    0.240247    2.165674
    0.240247   -0.240247   -0.240247    2.165674
   -0.240247   -0.240247   -0.240247    2.165674
    0.240247    0.240247   -0.240247    2.165674
    0.240247   -0.240247    0.240247    2.165674
    0.240247    0.240247    0.240247    2.165674
   -0.240247   -0.240247    0.240247    2.165674
   -0.240247    0.240247   -0.240247    2.165674
   -0.240247    0.240247    0.240247    2.165674
    0.240247   -0.240247   -0.240247    2.165674
   -0.240247   -0.240247   -0.240247    2.165674
    0.240247    0.240247   -0.240247    2.165674
   -0.240247   -0.240247   -0.240247    2.165674
   -0.240247    0.240247   -0.240247    2.165674
    0.240247    0.240247    0.240247    2.165674
   -0.240247   -0.240247    0.240247    2.165674
   -0.240247    0.240247    0.240247    2.165674
    0.240247   -0.240247   -0.240247    2.165674
    0.240247   -0.240247    0.240247    2.165674
    0.240247   -0.240247   -0.240247    2.165674
    0.240247    0.240247   -0.240247    2.165674
   -0.240247   -0.240247   -0.240247    2.165674
    0.240247   -0.240247    0.240247    2.165674
   -0.240247    0.240247   -0.240247    2.165674
    0.240247    0.240247    0.240247    2.165674
   -0.240247   -0.240247    0.240247    2.165674
   -0.240247    0.240247    0.240247    2.165674
    0.240247   -0.240247   -0.240247    2.165674
    0.240247    0.240247   -0.240247    2.165674
   -0.240247   -0.240247   -0.240247    2.165674
    0.240247   -0.240247    0.240247    2.165674
   -0.240247    0.240247   -0.240247    2.165674
    0.240247    0.240247    0.240247    2.165674
   -0.240247   -0.240247    0.240247    2.165674
   -0.240247    0.240247    0.240247    2.165674
    0.240247   -0.240247   -0.240247    2.165674
    0.240247    0.240247   -0.240247    2.165674
   -0.240247   -0.240247   -0.240247    2.165674
    0.240247   -0.240247    0.240247    2.165674
   -0.240247    0.240247   -0.240247    2.165674
    0.240247    0.240247    0.240247    2.165674
   -0.240247   -0.240247    0.240247    2.165674
   -0.240247    0.240247    0.240247    2.165674
    0.240247   -0.240247   -0.240247    2.165674
    0.240247    0.240247   -0.240247    2.165674
   -0.240247   -0.240247   -0.240247    2.165674
    0.240247   -0.240247    0.240247    2.165674
   -0.240247    0.240247   -0.240247    2.165674
    0.240247    0.240247    0.240247    2.165674
   -0.240247   -0.240247    0.240247    2.165674
   -0.240247    0.240247    0.240247    2.165674
    0.240247   -0.240247   -0.240247    2.165674
    0.240247    0.240247   -0.240247    2.165674
   -0.240247   -0.240247   -0.240247    2.165674
    0.240247   -0.240247    0.240247    2.165674
    0.240247    0.240247    0.240247    2.165674
   -0.240247   -0.240247    0.240247    2.165674
   -0.240247    0.240247   -0.240247    2.165674
   -0.240247    0.240247    0.240247    2.165674
    0.240247    0.240247   -0.240247    2.165674
   -0.240247   -0.240247   -0.240247    2.165674
   -0.240247    0.240247   -0.240247    2.165674
    0.240247    0.240247    0.240247    2.165674
   -0.240247   -0.240247    0.240247    2.165674
   -0.240247    0.240247    0.240247    2.165674
    0.240247   -0.240247   -0.240247    2.165674
    0.240247   -0.240247    0.240247    2.165674
    0.240247   -0.240247   -0.240247    2.165674
    0.240247    0.240247   -0.240247    2.165674
   -0.240247   -0.240247   -0.240247    2.165674
    0.240247   -0.240247    0.240247    2.165674
   -0.240247    0.240247   -0.240247    2.165674
    0.240247    0.240247    0.240247    2.165674
   -0.240247   -0.240247    0.240247    2.165674
   -0.240247    0.240247    0.240247    2.165674
    0.240247   -0.240247   -0.240247    2.165674
    0.240247    0.240247   -0.240247    2.165674
   -0.240247   -0.240247   -0.240247    2.165674
    0.240247   -0.240247    0.240247    2.165674
   -0.240247    0.240247   -0.240247    2.165674
    0.240247    0.240247    0.240247    2.165674
   -0.240247   -0.240247    0.240247    2.165674
   -0.240247    0.240247    0.240247    2.165674
    0.240247   -0.240247   -0.240247    2.165674
    0.240247    0.240247   -0.240247    2.165674
   -0.240247   -0.240247   -0.240247    2.165674
    0.240247   -0.240247    0.240247    2.165674
   -0.240247    0.240247   -0.240247    2.165674
    0.240247    0.240247    0.240247    2.165674
   -0.240247   -0.240247    0.240247    2.165674
   -0.240247    0.240247    0.240247    2.165674
    0.240247   -0.240247   -0.240247    2.165674
    0.240247    0.240247   -0.240247    2.165674
   -0.240247   -0.240247   -0.240247    2.165674
    0.240247   -0.240247    0.240247    2.165674
   -0.240247    0.240247   -0.240247    2.165674
    0.240247    0.240247    0.240247    2.165674
   -0.240247   -0.240247    0.240247    2.165674
   -0.240247    0.240247    0.240247    2.165674
    0.240247   -0.240247   -0.240247    2.165674
    0.240247    0.240247   -0.240247    2.165674
   -0.240247   -0.240247   -0.240247    2.165674
    0.240247   -0.240247    0.240247    2.165674
    0.240247    0.240247    0.240247    2.165674
   -0.240247   -0.240247    0.240247    2.165674
   -0.240247    0.240247   -0.240247    2.165674
   -0.240247    0.240247    0.240247    2.165674
    0.240247    0.240247   -0.240247    2.165674
   -0.240247   -0.240247   -0.240247    2.165674
   -0.240247    0.240247   -0.240247    2.165674
    0.240247    0.240247    0.240247    2.165674
   -0.240247   -0.240247    0.240247    2.165674
   -0.240247    0.240247    0.240247    2.165674
    0.240247   -0.240247   -0.240247    2.165674
    0.240247   -0.240247    0.240247    2.165674
    0.240247   -0.240247   -0.240247    2.165674
    0.240247    0.240247   -0.240247    2.165674
   -0.240247   -0.240247   -0.240247    2.165674
    0.240247   -0.240247    0.240247    2.165674
   -0.240247    0.240247   -0.240247    2.165674
    0.240247    0.240247    0.240247    2.165674
   -0.240247   -0.240247    0.240247    2.165674
   -0.240247    0.240247    0.240247    2.165674
    0.240247   -0.240247   -0.240247    2.165674
    0.240247    0.240247   -0.240247    2.165674
   -0.240247   -0.240247   -0.240247    2.165674
    0.240247   -0.240247    0.240247    2.165674
   -0.240247    0.240247   -0.240247    2.165674
    0.240247    0.240247    0.240247    2.165674
   -0.240247   -0.240247    0.240247    2.165674
   -0.240247    0.240247    0.240247    2.165674
    0.240247   -0.240247   -0.240247    2.165674
    0.240247    0.240247   -0.240247    2.165674
   -0.240247   -0.240247   -0.240247    2.165674
    0.240247   -0.240247    0.240247    2.165674
   -0.240247    0.240247   -0.240247    2.165674
    0.240247    0.240247    0.240247    2.165674
   -0.240247   -0.240247    0.240247    2.165674
   -0.240247    0.240247    0.240247    2.165674
    0.240247   -0.240247   -0.240247    2.165674
    0.240247    0.240247   -0.240247    2.165674
   -0.240247   -0.240247   -0.240247    2.165674
    0.240247   -0.240247    0.240247    2.165674
   -0.240247    0.240247   -0.240247    2.165674
    0.240247    0.240247    0.240247    2.165674
   -0.240247   -0.240247    0.240247    2.165674
   -0.240247    0.240247    0.240247    2.165674
    0.240247   -0.240247   -0.240247    2.165674
    0.240247    0.240247   -0.240247    2.165674
   -0.240247   -0.240247   -0.240247    2.165674
    0.240247   -0.240247    0.240247    2.165674
    0.240247    0.240247    0.240247    2.165674
   -0.240247   -0.240247    0.240247    2.165674
   -0.240247    0.240247   -0.240247    2.165674
   -0.240247    0.240247    0.240247    2.165674
    0.240247    0.240247   -0.240247    2.165674
   -0.240247   -0.240247   -0.240247    2.165674
   -0.240247    0.240247   -0.240247    2.165674
    0.240247    0.240247    0.240247    2.165674
   -0.240247   -0.240247    0.240247    2.165674
   -0.240247    0.240247    0.240247    2.165674
    0.240247   -0.240247   -0.240247    2.165674
    0.240247   -0.240247    0.240247    2.165674
    0.240247   -0.240247   -0.240247    2.165674
    0.240247    0.240247   -0.240247    2.165674
   -0.240247   -0.240247   -0.240247    2.165674
    0.240247   -0.240247    0.240247    2.165674
   -0.240247    0.240247   -0.240247    2.165674
    0.240247    0.240247    0.240247    2.165674
   -0.240247   -0.240247    0.240247    2.165674
   -0.240247    0.240247    0.240247    2.165674
    0.240247   -0.240247   -0.240247    2.165674
    0.240247    0.240247   -0.240247    2.165674
   -0.240247   -0.240247   -0.240247    2.165674
    0.240247   -0.240247    0.240247    2.165674
   -0.240247    0.240247   -0.240247    2.165674
    0.240247    0.240247    0.240247    2.165674
   -0.240247   -0.240247    0.240247    2.165674
   -0.240247    0.240247    0.240247    2.165674
    0.240247   -0.240247   -0.240247    2.165674
    0.240247    0.240247   -0.240247    2.165674
   -0.240247   -0.240247   -0.240247    2.165674
    0.240247   -0.240247    0.240247    2.165674
   -0.240247    0.240247   -0.240247    2.165674
    0.240247    0.240247    0.240247    2.165674
   -0.240247   -0.240247    0.240247    2.165674
   -0.240247    0.240247    0.240247    2.165674
    0.240247   -0.240247   -0.240247    2.165674
    0.240247    0.240247   -0.240247    2.165674
   -0.240247   -0.240247   -0.240247    2.165674
    0.240247   -0.240247    0.240247    2.165674
   -0.240247    0.240247   -0.240247    2.165674
    0.240247    0.240247    0.240247    2.165674
   -0.240247   -0.240247    0.240247    2.165674
   -0.240247    0.240247    0.240247    2.165674
    0.240247   -0.240247   -0.240247    2.165674
    0.240247    0.240247   -0.240247    2.165674
   -0.240247   -0.240247   -0.240247    2.165674
    0.240247   -0.240247    0.240247    2.165674
    0.240247    0.240247    0.240247    2.165674
   -0.240247   -0.240247    0.240247    2.165674
   -0.240247    0.240247   -0.240247    2.165674
   -0.240247    0.240247    0.240247    2.165674
    0.240247    0.240247   -0.240247    2.165674
   -0.240247   -0.240247   -0.240247    2.165674
   -0.240247    0.240247   -0.240247    2.165674
   -0.240247   -0.240247    0.240247    2.165674
    0.240247    0.240247    0.240247    2.165674
   -0.240247    0.240247    0.240247    2.165674
    0.240247   -0.240247   -0.240247    2.165674
    0.240247   -0.240247    0.240247    2.165674
    0.240247   -0.240247   -0.240247    2.165674
    0.240247    0.240247   -0.240247    2.165674
   -0.240247   -0.240247   -0.240247    2.165674
    0.240247   -0.240247    0.240247    2.165674
   -0.240247    0.240247   -0.240247    2.165674
   -0.240247   -0.240247    0.240247    2.165674
    0.240247    0.240247    0.240247    2.165674
   -0.240247    0.240247    0.240247    2.165674
    0.240247   -0.240247   -0.240247    2.165674
    0.240247    0.240247   -0.240247    2.165674
   -0.240247   -0.240247   -0.240247    2.165674
    0.240247   -0.240247    0.240247    2.165674
   -0.240247    0.240247   -0.240247    2.165674
   -0.240247   -0.240247    0.240247    2.165674
    0.240247    0.240247    0.240247    2.165674
   -0.240247    0.240247    0.240247    2.165674
    0.240247   -0.240247   -0.240247    2.165674
    0.240247    0.240247   -0.240247    2.165674
   -0.240247   -0.240247   -0.240247    2.165674
    0.240247   -0.240247    0.240247    2.165674
   -0.240247    0.240247   -0.240247    2.165674
   -0.240247   -0.240247    0.240247    2.165674
    0.240247    0.240247    0.240247    2.165674
   -0.240247    0.240247    0.240247    2.165674
    0.240247   -0.240247   -0.240247    2.165674
    0.240247    0.240247   -0.240247    2.165674
   -0.240247   -0.240247   -0.240247    2.165674
    0.240247   -0.240247    0.240247    2.165674
   -0.240247    0.240247   -0.240247    2.165674
   -0.240247   -0.240247    0.240247    2.165674
    0.240247    0.240247    0.240247    2.165674
   -0.240247    0.240247    0.240247    2.165674
    0.240247   -0.240247   -0.240247    2.165674
    0.240247    0.240247   -0.240247    2.165674
   -0.240247   -0.240247   -0.240247    2.165674
    0.240247   -0.240247    0.240247    2.165674
   -0.240247   -0.240247    0.240247    2.165674
    0.240247    0.240247    0.240247    2.165674
   -0.240247    0.240247   -0.240247    2.165674
   -0.240247    0.240247    0.240247    2.165674
    0.240247    0.240247   -0.240247    2.165674
   -0.240247    0.240247   -0.240247    2.165674
    0.240247    0.240247    0.240247    2.165674
   -0.240247   -0.240247    0.240247    2.165674
   -0.240247    0.240247    0.240247    2.165674
    0.240247   -0.240247    0.240247    2.165674
   -0.240247   -0.240247   -0.240247    2.165674
    0.240247   -0.240247   -0.240247    2.165674
    0.240247    0.240247   -0.240247    2.165674
    0.240247   -0.240247    0.240247    2.165674
   -0.240247    0.240247   -0.240247    2.165674
    0.240247    0.240247    0.240247    2.165674
   -0.240247   -0.240247    0.240247    2.165674
   -0.240247    0.240247    0.240247    2.165674
    0.240247   -0.240247   -0.240247    2.165674
   -0.240247   -0.240247   -0.240247    2.165674
    0.240247    0.240247   -0.240247    2.165674
    0.240247   -0.240247    0.240247    2.165674
   -0.240247    0.240247   -0.240247    2.165674
    0.240247    0.240247    0.240247    2.165674
   -0.240247   -0.240247    0.240247    2.165674
   -0.240247    0.240247    0.240247    2.165674
    0.240247   -0.240247   -0.240247    2.165674
   -0.240247   -0.240247   -0.240247    2.165674
    0.240247    0.240247   -0.240247    2.165674
    0.240247   -0.240247    0.240247    2.165674
   -0.240247    0.240247   -0.240247    2.165674
    0.240247    0.240247    0.240247    2.165674
   -0.240247   -0.240247    0.240247    2.165674
   -0.240247    0.240247    0.240247    2.165674
    0.240247   -0.240247   -0.240247    2.165674
   -0.240247   -0.240247   -0.240247    2.165674
    0.240247    0.240247   -0.240247    2.165674
    0.240247   -0.240247    0.240247    2.165674
   -0.240247    0.240247   -0.240247    2.165674
    0.240247    0.240247    0.240247    2.165674
   -0.240247   -0.240247    0.240247    2.165674
   -0.240247    0.240247    0.240247    2.165674
    0.240247   -0.240247   -0.240247    2.165674
   -0.240247   -0.240247   -0.240247    2.165674
    0.240247    0.240247   -0.240247    2.165674
    0.240247   -0.240247    0.240247    2.165674
    0.240247    0.240247    0.240247    2.165674
   -0.240247   -0.240247    0.240247    2.165674
   -0.240247    0.240247   -0.240247    2.165674
   -0.240247    0.240247    0.240247    2.165674
    0.240247   -0.240247   -0.240247    2.165674
   -0.240247   -0.240247   -0.240247    2.165674
    0.240247    0.240247   -0.240247    2.165674
   -0.240247   -0.240247   -0.240247    2.165674
   -0.240247    0.240247   -0.240247    2.165674
    0.240247    0.240247    0.240247    2.165674
   -0.240247   -0.240247    0.240247    2.165674
   -0.240247    0.240247    0.240247    2.165674
    0.240247   -0.240247   -0.240247    2.165674
    0.240247   -0.240247    0.240247    2.165674
    0.240247   -0.240247   -0.240247    2.165674
    0.240247    0.240247   -0.240247    2.165674
   -0.240247   -0.240247   -0.240247    2.165674
    0.240247   -0.240247    0.240247    2.165674
   -0.240247    0.240247   -0.240247    2.165674
    0.240247    0.240247    0.240247    2.165674
   -0.240247   -0.240247    0.240247    2.165674
   -0.240247    0.240247    0.240247    2.165674
    0.240247   -0.240247   -0.240247    2.165674
    0.240247    0.240247   -0.240247    2.165674
   -0.240247   -0.240247   -0.240247    2.165674
    0.240247   -0.240247    0.240247    2.165674
   -0.240247    0.240247   -0.240247    2.165674
    0.240247    0.240247    0.240247    2.165674
   -0.240247   -0.240247    0.240247    2.165674
   -0.240247    0.240247    0.240247    2.165674
    0.240247   -0.240247   -0.240247    2.165674
    0.240247    0.240247   -0.240247    2.165674
   -0.240247   -0.240247   -0.240247    2.165674
    0.240247   -0.240247    0.240247    2.165674
   -0.240247    0.240247   -0.240247    2.165674
    0.240247    0.240247    0.240247    2.165674
   -0.240247   -0.240247    0.240247    2.165674
   -0.240247    0.240247    0.240247    2.165674
    0.240247   -0.240247   -0.240247    2.165674
    0.240247    0.240247   -0.240247    2.165674
   -0.240247   -0.240247   -0.240247    2.165674
    0.240247   -0.240247    0.240247    2.165674
   -0.240247    0.240247   -0.240247    2.165674
    0.240247    0.240247    0.240247    2.165674
   -0.240247   -0.240247    0.240247    2.165674
   -0.240247    0.240247    0.240247    2.165674
    0.240247   -0.240247   -0.240247    2.165674
    0.240247    0.240247   -0.240247    2.165674
   -0.240247   -0.240247   -0.240247    2.165674
    0.240247   -0.240247    0.240247    2.165674
    0.240247    0.240247    0.240247    2.165674
   -0.240247   -0.240247    0.240247    2.165674
   -0.240247    0.240247   -0.240247    2.165674
   -0.240247    0.240247    0.240247    2.165674
    0.240247    0.240247   -0.240247    2.165674
   -0.240247   -0.240247   -0.240247    2.165674
   -0.240247    0.240247   -0.240247    2.165674
    0.240247    0.240247    0.240247    2.165674
   -0.240247   -0.240247    0.240247    2.165674
   -0.240247    0.240247    0.240247    2.165674
    0.240247   -0.240247   -0.240247    2.165674
    0.240247   -0.240247    0.240247    2.165674
    0.240247   -0.240247   -0.240247    2.165674
    0.240247    0.240247   -0.240247    2.165674
   -0.240247   -0.240247   -0.240247    2.165674
    0.240247   -0.240247    0.240247    2.165674
   -0.240247    0.240247   -0.240247    2.165674
    0.240247    0.240247    0.240247    2.165674
   -0.240247   -0.240247    0.240247    2.165674
   -0.240247    0.240247    0.240247    2.165674
    0.240247   -0.240247   -0.240247    2.165674
    0.240247    0.240247   -0.240247    2.165674
   -0.240247   -0.240247   -0.240247    2.165674
    0.240247   -0.240247    0.240247    2.165674
   -0.240247    0.240247   -0.240247    2.165674
    0.240247    0.240247    0.240247    2.165674
   -0.240247   -0.240247    0.240247    2.165674
   -0.240247    0.240247    0.240247    2.165674
    0.240247   -0.240247   -0.240247    2.165674
    0.240247    0.240247   -0.240247    2.165674
   -0.240247   -0.240247   -0.240247    2.165674
    0.240247   -0.240247    0.240247    2.165674
   -0.240247    0.240247   -0.240247    2.165674
    0.240247    0.240247    0.240247    2.165674
   -0.240247   -0.240247    0.240247    2.165674
   -0.240247    0.240247    0.240247    2.165674
    0.240247   -0.240247   -0.240247    2.165674
    0.240247    0.240247   -0.240247    2.165674
   -0.240247   -0.240247   -0.240247    2.165674
    0.240247   -0.240247    0.240247    2.165674
   -0.240247    0.240247   -0.240247    2.165674
    0.240247    0.240247    0.240247    2.165674
   -0.240247   -0.240247    0.240247    2.165674
   -0.240247    0.240247    0.240247    2.165674
    0.240247   -0.240247   -0.240247    2.165674
    0.240247    0.240247   -0.240247    2.165674
   -0.240247   -0.240247   -0.240247    2.165674
    0.240247   -0.240247    0.240247    2.165674
    0.240247    0.240247    0.240247    2.165674
   -0.240247   -0.240247    0.240247    2.165674
   -0.240247    0.240247   -0.240247    2.165674
   -0.240247    0.240247    0.240247    2.165674
    0.240247    0.240247   -0.240247    2.165674
   -0.240247   -0.240247   -0.240247    2.165674
   -0.240247    0.240247   -0.240247    2.165674
    0.240247    0.240247    0.240247    2.165674
   -0.240247   -0.240247    0.240247    2.165674
   -0.240247    0.240247    0.240247    2.165674
    0.240247   -0.240247   -0.240247    2.165674
    0.240247   -0.240247    0.240247    2.165674
    0.240247   -0.240247   -0.240247    2.165674
    0.240247    0.240247   -0.240247    2.165674
   -0.240247   -0.240247   -0.240247    2.165674
    0.240247   -0.240247    0.240247    2.165674
   -0.240247    0.240247   -0.240247    2.165674
    0.240247    0.240247    0.240247    2.165674
   -0.240247   -0.240247    0.240247    2.165674
   -0.240247    0.240247    0.240247    2.165674
    0.240247   -0.240247   -0.240247    2.165674
    0.240247    0.240247   -0.240247    2.165674
   -0.240247   -0.240247   -0.240247    2.165674
    0.240247   -0.240247    0.240247    2.165674
   -0.240247    0.240247   -0.240247    2.165674
    0.240247    0.240247    0.240247    2.165674
   -0.240247   -0.240247    0.240247    2.165674
   -0.240247    0.240247    0.240247    2.165674
    0.240247   -0.240247   -0.240247    2.165674
    0.240247    0.240247   -0.240247    2.165674
   -0.240247   -0.240247   -0.240247    2.165674
    0.240247   -0.240247    0.240247    2.165674
   -0.240247    0.240247   -0.240247    2.165674
    0.240247    0.240247    0.240247    2.165674
   -0.240247   -0.240247    0.240247    2.165674
   -0.240247    0.240247    0.240247    2.165674
    0.240247   -0.240247   -0.240247    2.165674
    0.240247    0.240247   -0.240247    2.165674
   -0.240247   -0.240247   -0.240247    2.165674
    0.240247   -0.240247    0.240247    2.165674
   -0.240247    0.240247   -0.240247    2.165674
    0.240247    0.240247    0.240247    2.165674
   -0.240247   -0.240247    0.240247    2.165674
   -0.240247    0.240247    0.240247    2.165674
    0.240247   -0.240247   -0.240247    2.165674
    0.240247    0.240247   -0.240247    2.165674
   -0.240247   -0.240247   -0.240247    2.165674
    0.240247   -0.240247    0.240247    2.165674
    0.240247    0.240247    0.240247    2.165674
   -0.240247   -0.240247    0.240247    2.165674
   -0.240247    0.240247   -0.240247    2.165674
   -0.240247    0.240247    0.240247    2.165674
    0.240247    0.240247   -0.240247    2.165674
   -0.240247   -0.240247   -0.240247    2.165674
   -0.240247    0.240247   -0.240247    2.165674
    0.240247    0.240247    0.240247    2.165674
   -0.240247   -0.240247    0.240247    2.165674
   -0.240247    0.240247    0.240247    2.165674
    0.240247   -0.240247   -0.240247    2.165674
    0.240247   -0.240247    0.240247    2.165674
    0.240247   -0.240247   -0.240247    2.165674
    0.240247    0.240247   -0.240247    2.165674
   -0.240247   -0.240247   -0.240247    2.165674
    0.240247   -0.240247    0.240247    2.165674
   -0.240247    0.240247   -0.240247    2.165674
    0.240247    0.240247    0.240247    2.165674
   -0.240247   -0.240247    0.240247    2.165674
   -0.240247    0.240247    0.240247    2.165674
    0.240247   -0.240247   -0.240247    2.165674
    0.240247    0.240247   -0.240247    2.165674
   -0.240247   -0.240247   -0.240247    2.165674
    0.240247   -0.240247    0.240247    2.165674
   -0.240247    0.240247   -0.240247    2.165674
    0.240247    0.240247    0.240247    2.165674
   -0.240247   -0.240247    0.240247    2.165674
   -0.240247    0.240247    0.240247    2.165674
    0.240247   -0.240247   -0.240247    2.165674
    0.240247    0.240247   -0.240247    2.165674
   -0.240247   -0.240247   -0.240247    2.165674
    0.240247   -0.240247    0.240247    2.165674
   -0.240247    0.240247   -0.240247    2.165674
    0.240247    0.240247    0.240247    2.165674
   -0.240247   -0.240247    0.240247    2.165674
   -0.240247    0.240247    0.240247    2.165674
    0.240247   -0.240247   -0.240247    2.165674
    0.240247    0.240247   -0.240247    2.165674
   -0.240247   -0.240247   -0.240247    2.165674
    0.240247   -0.240247    0.240247    2.165674
   -0.240247    0.240247   -0.240247    2.165674
    0.240247    0.240247    0.240247    2.165674
   -0.240247   -0.240247    0.240247    2.165674
   -0.240247    0.240247    0.240247    2.165674
    0.240247   -0.240247   -0.240247    2.165674
    0.240247    0.240247   -0.240247    2.165674
   -0.240247   -0.240247   -0.240247    2.165674
    0.240247   -0.240247    0.240247    2.165674
    0.240247    0.240247    0.240247    2.165674
   -0.240247   -0.240247    0.240247    2.165674
   -0.240247    0.240247   -0.240247    2.165674
   -0.240247    0.240247    0.240247    2.165674
    0.240247    0.240247   -0.240247    2.165674
   -0.240247   -0.240247   -0.240247    2.165674
   -0.240247    0.240247   -0.240247    2.165674
   -0.240247   -0.240247    0.240247    2.165674
    0.240247    0.240247    0.240247    2.165674
   -0.240247    0.240247    0.240247    2.165674
    0.240247   -0.240247   -0.240247    2.165674
    0.240247   -0.240247    0.240247    2.165674
    0.240247   -0.240247   -0.240247    2.165674
    0.240247    0.240247   -0.240247    2.165674
   -0.240247   -0.240247   -0.240247    2.165674
    0.240247   -0.240247    0.240247    2.165674
   -0.240247    0.240247   -0.240247    2.165674
   -0.240247   -0.240247    0.240247    2.165674
    0.240247    0.240247    0.240247    2.165674
   -0.240247    0.240247    0.240247    2.165674
    0.240247   -0.240247   -0.240247    2.165674
    0.240247    0.240247   -0.240247    2.165674
   -0.240247   -0.240247   -0.240247    2.165674
    0.240247   -0.240247    0.240247    2.165674
   -0.240247    0.240247   -0.240247    2.165674
   -0.240247   -0.240247    0.240247    2.165674
    0.240247    0.240247    0.240247    2.165674
   -0.240247    0.240247    0.240247    2.165674
    0.240247   -0.240247   -0.240247    2.165674
    0.240247    0.240247   -0.240247    2.165674
   -0.240247   -0.240247   -0.240247    2.165674
    0.240247   -0.240247    0.240247    2.165674
   -0.240247    0.240247   -0.240247    2.165674
   -0.240247   -0.240247    0.240247    2.165674
    0.240247    0.240247    0.240247    2.165674
   -0.240247    0.240247    0.240247    2.165674
    0.240247   -0.240247   -0.240247    2.165674
    0.240247    0.240247   -0.240247    2.165674
   -0.240247   -0.240247   -0.240247    2.165674
    0.240247   -0.240247    0.240247    2.165674
   -0.240247    0.240247   -0.240247    2.165674
   -0.240247   -0.240247    0.240247    2.165674
    0.240247    0.240247    0.240247    2.165674
   -0.240247    0.240247    0.240247    2.165674
    0.240247   -0.240247   -0.240247    2.165674
    0.240247    0.240247   -0.240247    2.165674
   -0.240247   -0.240247   -0.240247    2.165674
    0.240247   -0.240247    0.240247    2.165674
   -0.240247   -0.240247    0.240247    2.165674
    0.240247    0.240247    0.240247    2.165674
   -0.240247    0.240247   -0.240247    2.165674
   -0.240247    0.240247    0.240247    2.165674
    0.240247    0.240247   -0.240247    2.165674
   -0.240247    0.240247   -0.240247    2.165674
    0.240247    0.240247    0.240247    2.165674
   -0.240247   -0.240247    0.240247    2.165674
   -0.240247    0.240247    0.240247    2.165674
    0.240247   -0.240247    0.240247    2.165674
   -0.240247   -0.240247   -0.240247    2.165674
    0.240247   -0.240247   -0.240247    2.165674
    0.240247    0.240247   -0.240247    2.165674
    0.240247   -0.240247    0.240247    2.165674
   -0.240247    0.240247   -0.240247    2.165674
    0.240247    0.240247    0.240247    2.165674
   -0.240247   -0.240247    0.240247    2.165674
   -0.240247    0.240247    0.240247    2.165674
    0.240247   -0.240247   -0.240247    2.165674
   -0.240247   -0.240247   -0.240247    2.165674
    0.240247    0.240247   -0.240247    2.165674
    0.240247   -0.240247    0.240247    2.165674
   -0.240247    0.240247   -0.240247    2.165674
    0.240247    0.240247    0.240247    2.165674
   -0.240247   -0.240247    0.240247    2.165674
   -0.240247    0.240247    0.240247    2.165674
    0.240247   -0.240247   -0.240247    2.165674
   -0.240247   -0.240247   -0.240247    2.165674
    0.240247    0.240247   -0.240247    2.165674
    0.240247   -0.240247    0.240247    2.165674
   -0.240247    0.240247   -0.240247    2.165674
    0.240247    0.240247    0.240247    2.165674
   -0.240247   -0.240247    0.240247    2.165674
   -0.240247    0.240247    0.240247    2.165674
    0.240247   -0.240247   -0.240247    2.165674
   -0.240247   -0.240247   -0.240247    2.165674
    0.240247    0.240247   -0.240247    2.165674
    0.240247   -0.240247    0.240247    2.165674
   -0.240247    0.240247   -0.240247    2.165674
    0.240247    0.240247    0.240247    2.165674
   -0.240247   -0.240247    0.240247    2.165674
   -0.240247    0.240247    0.240247    2.165674
    0.240247   -0.240247   -0.240247    2.165674
   -0.240247   -0.240247   -0.240247    2.165674
    0.240247    0.240247   -0.240247    2.165674
    0.240247   -0.240247    0.240247    2.165674
    0.240247    0.240247    0.240247    2.165674
   -0.240247   -0.240247    0.240247    2.165674
   -0.240247    0.240247   -0.240247    2.165674
   -0.240247    0.240247    0.240247    2.165674
    0.240247   -0.240247   -0.240247    2.165674
   -0.240247   -0.240247   -0.240247    2.165674
    0.240247    0.240247   -0.240247    2.165674
   -0.240247   -0.240247   -0.240247    2.165674
   -0.240247    0.240247   -0.240247    2.165674
    0.240247    0.240247    0.240247    2.165674
   -0.240247   -0.240247    0.240247    2.165674
   -0.240247    0.240247    0.240247    2.165674
    0.240247   -0.240247   -0.240247    2.165674
    0.240247   -0.240247    0.240247    2.165674
    0.240247   -0.240247   -0.240247    2.165674
    0.240247    0.240247   -0.240247    2.165674
   -0.240247   -0.240247   -0.240247    2.165674
    0.240247   -0.240247    0.240247    2.165674
   -0.240247    0.240247   -0.240247    2.165674
    0.240247    0.240247    0.240247    2.165674
   -0.240247   -0.240247    0.240247    2.165674
   -0.240247    0.240247    0.240247    2.165674
    0.240247   -0.240247   -0.240247    2.165674
    0.240247    0.240247   -0.240247    2.165674
   -0.240247   -0.240247   -0.240247    2.165674
    0.240247   -0.240247    0.240247    2.165674
   -0.240247    0.240247   -0.240247    2.165674
    0.240247    0.240247    0.240247    2.165674
   -0.240247   -0.240247    0.240247    2.165674
   -0.240247    0.240247    0.240247    2.165674
    0.240247   -0.240247   -0.240247    2.165674
    0.240247    0.240247   -0.240247    2.165674
   -0.240247   -0.240247   -0.240247    2.165674
    0.240247   -0.240247    0.240247    2.165674
   -0.240247    0.240247   -0.240247    2.165674
    0.240247    0.240247    0.240247    2.165674
   -0.240247   -0.240247    0.240247    2.165674
   -0.240247    0.240247    0.240247    2.165674
    0.240247   -0.240247   -0.240247    2.165674
    0.240247    0.240247   -0.240247    2.165674
   -0.240247   -0.240247   -0.240247    2.165674
    0.240247   -0.240247    0.240247    2.165674
   -0.240247    0.240247   -0.240247    2.165674
    0.240247    0.240247    0.240247    2.165674
   -0.240247   -0.240247    0.240247    2.165674
   -0.240247    0.240247    0.240247    2.165674
    0.240247   -0.240247   -0.240247    2.165674
    0.240247    0.240247   -0.240247    2.165674
   -0.240247   -0.240247   -0.240247    2.165674
    0.240247   -0.240247    0.240247    2.165674
    0.240247    0.240247    0.240247    2.165674
   -0.240247   -0.240247    0.240247    2.165674
   -0.240247    0.240247   -0.240247    2.165674
   -0.240247    0.240247    0.240247    2.165674
    0.240247    0.240247   -0.240247    2.165674
   -0.240247   -0.240247   -0.240247    2.165674
   -0.240247    0.240247   -0.240247    2.165674
    0.240247    0.240247    0.240247    2.165674
   -0.240247   -0.240247    0.240247    2.165674
   -0.240247    0.240247    0.240247    2.165674
    0.240247   -0.240247   -0.240247    2.165674
    0.240247   -0.240247    0.240247    2.165674
    0.240247   -0.240247   -0.240247    2.165674
    0.240247    0.240247   -0.240247    2.165674
   -0.240247   -0.240247   -0.240247    2.165674
    0.240247   -0.240247    0.240247    2.165674
   -0.240247    0.240247   -0.240247    2.165674
    0.240247    0.240247    0.240247    2.165674
   -0.240247   -0.240247    0.240247    2.165674
   -0.240247    0.240247    0.240247    2.165674
    0.240247   -0.240247   -0.240247    2.165674
    0.240247    0.240247   -0.240247    2.165674
   -0.240247   -0.240247   -0.240247    2.165674
    0.240247   -0.240247    0.240247    2.165674
   -0.240247    0.240247   -0.240247    2.165674
    0.240247    0.240247    0.240247    2.165674
   -0.240247   -0.240247    0.240247    2.165674
   -0.240247    0.240247    0.240247    2.165674
    0.240247   -0.240247   -0.240247    2.165674
    0.240247    0.240247   -0.240247    2.165674
   -0.240247   -0.240247   -0.240247    2.165674
    0.240247   -0.240247    0.240247    2.165674
   -0.240247    0.240247   -0.240247    2.165674
    0.240247    0.240247    0.240247    2.165674
   -0.240247   -0.240247    0.240247    2.165674
   -0.240247    0.240247    0.240247    2.165674
    0.240247   -0.240247   -0.240247    2.165674
    0.240247    0.240247   -0.240247    2.165674
   -0.240247   -0.240247   -0.240247    2.165674
    0.240247   -0.240247    0.240247    2.165674
   -0.240247    0.240247   -0.240247    2.165674
    0.240247    0.240247    0.240247    2.165674
   -0.240247   -0.240247    0.240247    2.165674
   -0.240247    0.240247    0.240247    2.165674
    0.240247   -0.240247   -0.240247    2.165674
    0.240247    0.240247   -0.240247    2.165674
   -0.240247   -0.240247   -0.240247    2.165674
    0.240247   -0.240247    0.240247    2.165674
    0.240247    0.240247    0.240247    2.165674
   -0.240247   -0.240247    0.240247    2.165674
   -0.240247    0.240247   -0.240247    2.165674
   -0.240247    0.240247    0.240247    2.165674
    0.240247    0.240247   -0.240247    2.165674
   -0.240247   -0.240247   -0.240247    2.165674
   -0.240247    0.240247   -0.240247    2.165674
    0.240247    0.240247    0.240247    2.165674
   -0.240247   -0.240247    0.240247    2.165674
   -0.240247    0.240247    0.240247    2.165674
    0.240247   -0.240247   -0.240247    2.165674
    0.240247   -0.240247    0.240247    2.165674
    0.240247   -0.240247   -0.240247    2.165674
    0.240247    0.240247   -0.240247    2.165674
   -0.240247   -0.240247   -0.240247    2.165674
    0.240247   -0.240247    0.240247    2.165674
   -0.240247    0.240247   -0.240247    2.165674
    0.240247    0.240247    0.240247    2.165674
   -0.240247   -0.240247    0.240247    2.165674
   -0.240247    0.240247    0.240247    2.165674
    0.240247   -0.240247   -0.240247    2.165674
    0.240247    0.240247   -0.240247    2.165674
   -0.240247   -0.240247   -0.240247    2.165674
    0.240247   -0.240247    0.240247    2.165674
   -0.240247    0.240247   -0.240247    2.165674
    0.240247    0.240247    0.240247    2.165674
   -0.240247   -0.240247    0.240247    2.165674
   -0.240247    0.240247    0.240247    2.165674
    0.240247   -0.240247   -0.240247    2.165674
    0.240247    0.240247   -0.240247    2.165674
   -0.240247   -0.240247   -0.240247    2.165674
    0.240247   -0.240247    0.240247    2.165674
   -0.240247    0.240247   -0.240247    2.165674
    0.240247    0.240247    0.240247    2.165674
   -0.240247   -0.240247    0.240247    2.165674
   -0.240247    0.240247    0.240247    2.165674
    0.240247   -0.240247   -0.240247    2.165674
    0.240247    0.240247   -0.240247    2.165674
   -0.240247   -0.240247   -0.240247    2.165674
    0.240247   -0.240247    0.240247    2.165674
   -0.240247    0.240247   -0.240247    2.165674
    0.240247    0.240247    0.240247    2.165674
   -0.240247   -0.240247    0.240247    2.165674
   -0.240247    0.240247    0.240247    2.165674
    0.240247   -0.240247   -0.240247    2.165674
    0.240247    0.240247   -0.240247    2.165674
   -0.240247   -0.240247   -0.240247    2.165674
    0.240247   -0.240247    0.240247    2.165674
    0.240247    0.240247    0.240247    2.165674
   -0.240247   -0.240247    0.240247    2.165674
   -0.240247    0.240247   -0.240247    2.165674
   -0.240247    0.240247    0.240247    2.165674
    0.240247    0.240247   -0.240247    2.165674
   -0.240247   -0.240247   -0.240247    2.165674
   -0.240247    0.240247   -0.240247    2.165674
    0.240247    0.240247    0.240247    2.165674
   -0.240247   -0.240247    0.240247    2.165674
   -0.240247    0.240247    0.240247    2.165674
    0.240247   -0.240247   -0.240247    2.165674
    0.240247   -0.240247    0.240247    2.165674
    0.240247   -0.240247   -0.240247    2.165674
    0.240247    0.240247   -0.240247    2.165674
   -0.240247   -0.240247   -0.240247    2.165674
    0.240247   -0.240247    0.240247    2.165674
   -0.240247    0.240247   -0.240247    2.165674
    0.240247    0.240247    0.240247    2.165674
   -0.240247   -0.240247    0.240247    2.165674
   -0.240247    0.240247    0.240247    2.165674
    0.240247   -0.240247   -0.240247    2.165674
    0.240247    0.240247   -0.240247    2.165674
   -0.240247   -0.240247   -0.240247    2.165674
    0.240247   -0.240247    0.240247    2.165674
   -0.240247    0.240247   -0.240247    2.165674
    0.240247    0.240247    0.240247    2.165674
   -0.240247   -0.240247    0.240247    2.165674
   -0.240247    0.240247    0.240247    2.165674
    0.240247   -0.240247   -0.240247    2.165674
    0.240247    0.240247   -0.240247    2.165674
   -0.240247   -0.240247   -0.240247    2.165674
    0.240247   -0.240247    0.240247    2.165674
   -0.240247    0.240247   -0.240247    2.165674
    0.240247    0.240247    0.240247    2.165674
   -0.240247   -0.240247    0.240247    2.165674
   -0.240247    0.240247    0.240247    2.165674
    0.240247   -0.240247   -0.240247    2.165674
    0.240247    0.240247   -0.240247    2.165674
   -0.240247   -0.240247   -0.240247    2.165674
    0.240247   -0.240247    0.240247    2.165674
   -0.240247    0.240247   -0.240247    2.165674
    0.240247    0.240247    0.240247    2.165674
   -0.240247   -0.240247    0.240247    2.165674
   -0.240247    0.240247    0.240247    2.165674
    0.240247   -0.240247   -0.240247    2.165674
    0.240247    0.240247   -0.240247    2.165674
   -0.240247   -0.240247   -0.240247    2.165674
    0.240247   -0.240247    0.240247    2.165674
    0.240247    0.240247    0.240247    2.165674
   -0.240247   -0.240247    0.240247    2.165674
   -0.240247    0.240247   -0.240247    2.165674
   -0.240247    0.240247    0.240247    2.165674
    0.240247    0.240247   -0.240247    2.165674
   -0.240247   -0.240247   -0.240247    2.165674
   -0.240247    0.240247   -0.240247    2.165674
   -0.240247   -0.240247    0.240247    2.165674
    0.240247    0.240247    0.240247    2.165674
   -0.240247    0.240247    0.240247    2.165674
    0.240247   -0.240247   -0.240247    2.165674
    0.240247   -0.240247    0.240247    2.165674
    0.240247   -0.240247   -0.240247    2.165674
    0.240247    0.240247   -0.240247    2.165674
   -0.240247   -0.240247   -0.240247    2.165674
    0.240247   -0.240247    0.240247    2.165674
   -0.240247    0.240247   -0.240247    2.165674
   -0.240247   -0.240247    0.240247    2.165674
    0.240247    0.240247    0.240247    2.165674
   -0.240247    0.240247    0.240247    2.165674
    0.240247   -0.240247   -0.240247    2.165674
    0.240247    0.240247   -0.240247    2.165674
   -0.240247   -0.240247   -0.240247    2.165674
    0.240247   -0.240247    0.240247    2.165674
   -0.240247    0.240247   -0.240247    2.165674
   -0.240247   -0.240247    0.240247    2.165674
    0.240247    0.240247    0.240247    2.165674
   -0.240247    0.240247    0.240247    2.165674
    0.240247   -0.240247   -0.240247    2.165674
    0.240247    0.240247   -0.240247    2.165674
   -0.240247   -0.240247   -0.240247    2.165674
    0.240247   -0.240247    0.240247    2.165674
   -0.240247    0.240247   -0.240247    2.165674
   -0.240247   -0.240247    0.240247    2.165674
    0.240247    0.240247    0.240247    2.165674
   -0.240247    0.240247    0.240247    2.165674
    0.240247   -0.240247   -0.240247    2.165674
    0.240247    0.240247   -0.240247    2.165674
   -0.240247   -0.240247   -0.240247    2.165674
    0.240247   -0.240247    0.240247    2.165674
   -0.240247    0.240247   -0.240247    2.165674
   -0.240247   -0.240247    0.240247    2.165674
    0.240247    0.240247    0.240247    2.165674
   -0.240247    0.240247    0.240247    2.165674
    0.240247   -0.240247   -0.240247    2.165674
    0.240247    0.240247   -0.240247    2.165674
   -0.240247   -0.240247   -0.240247    2.165674
    0.240247   -0.240247    0.240247    2.165674
   -0.240247   -0.240247    0.240247    2.165674
    0.240247    0.240247    0.240247    2.165674
   -0.240247    0.240247   -0.240247    2.165674
   -0.240247    0.240247    0.240247    2.165674
    0.240247    0.240247   -0.240247    2.165674
   -0.240247    0.240247   -0.240247    2.165674
    0.240247    0.240247    0.240247    2.165674
   -0.240247   -0.240247    0.240247    2.165674
   -0.240247    0.240247    0.240247    2.165674
    0.240247   -0.240247    0.240247    2.165674
   -0.240247   -0.240247   -0.240247    2.165674
    0.240247   -0.240247   -0.240247    2.165674
    0.240247    0.240247   -0.240247    2.165674
    0.240247   -0.240247    0.240247    2.165674
   -0.240247    0.240247   -0.240247    2.165674
    0.240247    0.240247    0.240247    2.165674
   -0.240247   -0.240247    0.240247    2.165674
   -0.240247    0.240247    0.240247    2.165674
    0.240247   -0.240247   -0.240247    2.165674
   -0.240247   -0.240247   -0.240247    2.165674
    0.240247    0.240247   -0.240247    2.165674
    0.240247   -0.240247    0.240247    2.165674
   -0.240247    0.240247   -0.240247    2.165674
    0.240247    0.240247    0.240247    2.165674
   -0.240247   -0.240247    0.240247    2.165674
   -0.240247    0.240247    0.240247    2.165674
    0.240247   -0.240247   -0.240247    2.165674
   -0.240247   -0.240247   -0.240247    2.165674
    0.240247    0.240247   -0.240247    2.165674
    0.240247   -0.240247    0.240247    2.165674
   -0.240247    0.240247   -0.240247    2.165674
    0.240247    0.240247    0.240247    2.165674
   -0.240247   -0.240247    0.240247    2.165674
   -0.240247    0.240247    0.240247    2.165674
    0.240247   -0.240247   -0.240247    2.165674
   -0.240247   -0.240247   -0.240247    2.165674
    0.240247    0.240247   -0.240247    2.165674
    0.240247   -0.240247    0.240247    2.165674
   -0.240247    0.240247   -0.240247    2.165674
    0.240247    0.240247    0.240247    2.165674
   -0.240247   -0.240247    0.240247    2.165674
   -0.240247    0.240247    0.240247    2.165674
    0.240247   -0.240247   -0.240247    2.165674
   -0.240247   -0.240247   -0.240247    2.165674
    0.240247    0.240247   -0.240247    2.165674
    0.240247   -0.240247    0.240247    2.165674
    0.240247    0.240247    0.240247    2.165674
   -0.240247   -0.240247    0.240247    2.165674
   -0.240247    0.240247   -0.240247    2.165674
   -0.240247    0.240247    0.240247    2.165674
    0.240247   -0.240247   -0.240247    2.165674
   -0.240247   -0.240247   -0.240247    2.165674
    0.240247    0.240247   -0.240247    2.165674
   -0.240247   -0.240247   -0.240247    2.165674
   -0.240247    0.240247   -0.240247    2.165674
    0.240247    0.240247    0.240247    2.165674
   -0.240247   -0.240247    0.240247    2.165674
   -0.240247    0.240247    0.240247    2.165674
    0.240247   -0.240247   -0.240247    2.165674
    0.240247   -0.240247    0.240247    2.165674
    0.240247   -0.240247   -0.240247    2.165674
    0.240247    0.240247   -0.240247    2.165674
   -0.240247   -0.240247   -0.240247    2.165674
    0.240247   -0.240247    0.240247    2.165674
   -0.240247    0.240247   -0.240247    2.165674
    0.240247    0.240247    0.240247    2.165674
   -0.240247   -0.240247    0.240247    2.165674
   -0.240247    0.240247    0.240247    2.165674
    0.240247   -0.240247   -0.240247    2.165674
    0.240247    0.240247   -0.240247    2.165674
   -0.240247   -0.240247   -0.240247    2.165674
    0.240247   -0.240247    0.240247    2.165674
   -0.240247    0.240247   -0.240247    2.165674
    0.240247    0.240247    0.240247    2.165674
   -0.240247   -0.240247    0.240247    2.165674
   -0.240247    0.240247    0.240247    2.165674
    0.240247   -0.240247   -0.240247    2.165674
    0.240247    0.240247   -0.240247    2.165674
   -0.240247   -0.240247   -0.240247    2.165674
    0.240247   -0.240247    0.240247    2.165674
   -0.240247    0.240247   -0.240247    2.165674
    0.240247    0.240247    0.240247    2.165674
   -0.240247   -0.240247    0.240247    2.165674
   -0.240247    0.240247    0.240247    2.165674
    0.240247   -0.240247   -0.240247    2.165674
    0.240247    0.240247   -0.240247    2.165674
   -0.240247   -0.240247   -0.240247    2.165674
    0.240247   -0.240247    0.240247    2.165674
   -0.240247    0.240247   -0.240247    2.165674
    0.240247    0.240247    0.240247    2.165674
   -0.240247   -0.240247    0.240247    2.165674
   -0.240247    0.240247    0.240247    2.165674
    0.240247   -0.240247   -0.240247    2.165674
    0.240247    0.240247   -0.240247    2.165674
   -0.240247   -0.240247   -0.240247    2.165674
    0.240247   -0.240247    0.240247    2.165674
    0.240247    0.240247    0.240247    2.165674
   -0.240247   -0.240247    0.240247    2.165674
   -0.240247    0.240247   -0.240247    2.165674
   -0.240247    0.240247    0.240247    2.165674
    0.240247    0.240247   -0.240247    2.165674
   -0.240247   -0.240247   -0.240247    2.165674
   -0.240247    0.240247   -0.240247    2.165674
    0.240247    0.240247    0.240247    2.165674
   -0.240247   -0.240247    0.240247    2.165674
   -0.240247    0.240247    0.240247    2.165674
    0.240247   -0.240247   -0.240247    2.165674
    0.240247   -0.240247    0.240247    2.165674
    0.240247   -0.240247   -0.240247    2.165674
    0.240247    0.240247   -0.240247    2.165674
   -0.240247   -0.240247   -0.240247    2.165674
    0.240247   -0.240247    0.240247    2.165674
   -0.240247    0.240247   -0.240247    2.165674
    0.240247    0.240247    0.240247    2.165674
   -0.240247   -0.240247    0.240247    2.165674
   -0.240247    0.240247    0.240247    2.165674
    0.240247   -0.240247   -0.240247    2.165674
    0.240247    0.240247   -0.240247    2.165674
   -0.240247   -0.240247   -0.240247    2.165674
    0.240247   -0.240247    0.240247    2.165674
   -0.240247    0.240247   -0.240247    2.165674
    0.240247    0.240247    0.240247    2.165674
   -0.240247   -0.240247    0.240247    2.165674
   -0.240247    0.240247    0.240247    2.165674
    0.240247   -0.240247   -0.240247    2.165674
    0.240247    0.240247   -0.240247    2.165674
   -0.240247   -0.240247   -0.240247    2.165674
    0.240247   -0.240247    0.240247    2.165674
   -0.240247    0.240247   -0.240247    2.165674
    0.240247    0.240247    0.240247    2.165674
   -0.240247   -0.240247    0.240247    2.165674
   -0.240247    0.240247    0.240247    2.165674
    0.240247   -0.240247   -0.240247    2.165674
    0.240247    0.240247   -0.240247    2.165674
   -0.240247   -0.240247   -0.240247    2.165674
    0.240247   -0.240247    0.240247    2.165674
   -0.240247    0.240247   -0.240247    2.165674
    0.240247    0.240247    0.240247    2.165674
   -0.240247   -0.240247    0.240247    2.165674
   -0.240247    0.240247    0.240247    2.165674
    0.240247   -0.240247   -0.240247    2.165674
    0.240247    0.240247   -0.240247    2.165674
   -0.240247   -0.240247   -0.240247    2.165674
    0.240247   -0.240247    0.240247    2.165674
    0.240247    0.240247    0.240247    2.165674
   -0.240247   -0.240247    0.240247    2.165674
   -0.240247    0.240247   -0.240247    2.165674
   -0.240247    0.240247    0.240247    2.165674
    0.240247    0.240247   -0.240247    2.165674
   -0.240247   -0.240247   -0.240247    2.165674
   -0.240247    0.240247   -0.240247    2.165674
    0.240247    0.240247    0.240247    2.165674
   -0.240247   -0.240247    0.240247    2.165674
   -0.240247    0.240247    0.240247    2.165674
    0.240247   -0.240247   -0.240247    2.165674
    0.240247   -0.240247    0.240247    2.165674
    0.240247   -0.240247   -0.240247    2.165674
    0.240247    0.240247   -0.240247    2.165674
   -0.240247   -0.240247   -0.240247    2.165674
    0.240247   -0.240247    0.240247    2.165674
   -0.240247    0.240247   -0.240247    2.165674
    0.240247    0.240247    0.240247    2.165674
   -0.240247   -0.240247    0.240247    2.165674
   -0.240247    0.240247    0.240247    2.165674
    0.240247   -0.240247   -0.240247    2.165674
    0.240247    0.240247   -0.240247    2.165674
   -0.240247   -0.240247   -0.240247    2.165674
    0.240247   -0.240247    0.240247    2.165674
   -0.240247    0.240247   -0.240247    2.165674
    0.240247    0.240247    0.240247    2.165674
   -0.240247   -0.240247    0.240247    2.165674
   -0.240247    0.240247    0.240247    2.165674
    0.240247   -0.240247   -0.240247    2.165674
    0.240247    0.240247   -0.240247    2.165674
   -0.240247   -0.240247   -0.240247    2.165674
    0.240247   -0.240247    0.240247    2.165674
   -0.240247    0.240247   -0.240247    2.165674
    0.240247    0.240247    0.240247    2.165674
   -0.240247   -0.240247    0.240247    2.165674
   -0.240247    0.240247    0.240247    2.165674
    0.240247   -0.240247   -0.240247    2.165674
    0.240247    0.240247   -0.240247    2.165674
   -0.240247   -0.240247   -0.240247    2.165674
    0.240247   -0.240247    0.240247    2.165674
   -0.240247    0.240247   -0.240247    2.165674
    0.240247    0.240247    0.240247    2.165674
   -0.240247   -0.240247    0.240247    2.165674
   -0.240247    0.240247    0.240247    2.165674
    0.240247   -0.240247   -0.240247    2.165674
    0.240247    0.240247   -0.240247    2.165674
   -0.240247   -0.240247   -0.240247    2.165674
    0.240247   -0.240247    0.240247    2.165674
    0.240247    0.240247    0.240247    2.165674
   -0.240247   -0.240247    0.240247    2.165674
   -0.240247    0.240247   -0.240247    2.165674
   -0.240247    0.240247    0.240247    2.165674
    0.240247    0.240247   -0.240247    2.165674
   -0.240247   -0.240247   -0.240247    2.165674
   -0.240247    0.240247   -0.240247    2.165674
    0.240247    0.240247    0.240247    2.165674
   -0.240247   -0.240247    0.240247    2.165674
   -0.240247    0.240247    0.240247    2.165674
    0.240247   -0.240247   -0.240247    2.165674
    0.240247   -0.240247    0.240247    2.165674
    0.240247   -0.240247   -0.240247    2.165674
    0.240247    0.240247   -0.240247    2.165674
   -0.240247   -0.240247   -0.240247    2.165674
    0.240247   -0.240247    0.240247    2.165674
   -0.240247    0.240247   -0.240247    2.165674
    0.240247    0.240247    0.240247    2.165674
   -0.240247   -0.240247    0.240247    2.165674
   -0.240247    0.240247    0.240247    2.165674
    0.240247   -0.240247   -0.240247    2.165674
    0.240247    0.240247   -0.240247    2.165674
   -0.240247   -0.240247   -0.240247    2.165674
    0.240247   -0.240247    0.240247    2.165674
   -0.240247    0.240247   -0.240247    2.165674
    0.240247    0.240247    0.240247    2.165674
   -0.240247   -0.240247    0.240247    2.165674
   -0.240247    0.240247    0.240247    2.165674
    0.240247   -0.240247   -0.240247    2.165674
    0.240247    0.240247   -0.240247    2.165674
   -0.240247   -0.240247   -0.240247    2.165674
    0.240247   -0.240247    0.240247    2.165674
   -0.240247    0.240247   -0.240247    2.165674
    0.240247    0.240247    0.240247    2.165674
   -0.240247   -0.240247    0.240247    2.165674
   -0.240247    0.240247    0.240247    2.165674
    0.240247   -0.240247   -0.240247    2.165674
    0.240247    0.240247   -0.240247    2.165674
   -0.240247   -0.240247   -0.240247    2.165674
    0.240247   -0.240247    0.240247    2.165674
   -0.240247    0.240247   -0.240247    2.165674
    0.240247    0.240247    0.240247    2.165674
   -0.240247   -0.240247    0.240247    2.165674
   -0.240247    0.240247    0.240247    2.165674
    0.240247   -0.240247   -0.240247    2.165674
    0.240247    0.240247   -0.240247    2.165674
   -0.240247   -0.240247   -0.240247    2.165674
    0.240247   -0.240247    0.240247    2.165674
    0.240247    0.240247    0.240247    2.165674
   -0.240247   -0.240247    0.240247    2.165674
   -0.240247    0.240247   -0.240247    2.165674
   -0.240247    0.240247    0.240247    2.165674
    0.240247    0.240247   -0.240247    2.165674
   -0.240247   -0.240247   -0.240247    2.165674
   -0.240247    0.240247   -0.240247    2.165674
   -0.240247   -0.240247    0.240247    2.165674
    0.240247    0.240247    0.240247    2.165674
   -0.240247    0.240247    0.240247    2.165674
    0.240247   -0.240247   -0.240247    2.165674
    0.240247   -0.240247    0.240247    2.165674
    0.240247   -0.240247   -0.240247    2.165674
    0.240247    0.240247   -0.240247    2.165674
   -0.240247   -0.240247   -0.240247    2.165674
    0.240247   -0.240247    0.240247    2.165674
   -0.240247    0.240247   -0.240247    2.165674
   -0.240247   -0.240247    0.240247    2.165674
    0.240247    0.240247    0.240247    2.165674
   -0.240247    0.240247    0.240247    2.165674
    0.240247   -0.240247   -0.240247    2.165674
    0.240247    0.240247   -0.240247    2.165674
   -0.240247   -0.240247   -0.240247    2.165674
    0.240247   -0.240247    0.240247    2.165674
   -0.240247    0.240247   -0.240247    2.165674
   -0.240247   -0.240247    0.240247    2.165674
    0.240247    0.240247    0.240247    2.165674
   -0.240247    0.240247    0.240247    2.165674
    0.240247   -0.240247   -0.240247    2.165674
    0.240247    0.240247   -0.240247    2.165674
   -0.240247   -0.240247   -0.240247    2.165674
    0.240247   -0.240247    0.240247    2.165674
   -0.240247    0.240247   -0.240247    2.165674
   -0.240247   -0.240247    0.240247    2.165674
    0.240247    0.240247    0.240247    2.165674
   -0.240247    0.240247    0.240247    2.165674
    0.240247   -0.240247   -0.240247    2.165674
    0.240247    0.240247   -0.240247    2.165674
   -0.240247   -0.240247   -0.240247    2.165674
    0.240247   -0.240247    0.240247    2.165674
   -0.240247    0.240247   -0.240247    2.165674
   -0.240247   -0.240247    0.240247    2.165674
    0.240247    0.240247    0.240247    2.165674
   -0.240247    0.240247    0.240247    2.165674
    0.240247   -0.240247   -0.240247    2.165674
    0.240247    0.240247   -0.240247    2.165674
   -0.240247   -0.240247   -0.240247    2.165674
    0.240247   -0.240247    0.240247    2.165674
   -0.240247   -0.240247    0.240247    2.165674
    0.240247    0.240247    0.240247    2.165674
   -0.240247    0.240247   -0.240247    2.165674
   -0.240247    0.240247    0.240247    2.165674
    0.240247    0.240247   -0.240247    2.165674
   -0.240247    0.240247   -0.240247    2.165674
    0.240247    0.240247    0.240247    2.165674
   -0.240247   -0.240247    0.240247    2.165674
   -0.240247    0.240247    0.240247    2.165674
    0.240247   -0.240247    0.240247    2.165674
   -0.240247   -0.240247   -0.240247    2.165674
    0.240247   -0.240247   -0.240247    2.165674
    0.240247    0.240247   -0.240247    2.165674
    0.240247   -0.240247    0.240247    2.165674
   -0.240247    0.240247   -0.240247    2.165674
    0.240247    0.240247    0.240247    2.165674
   -0.240247   -0.240247    0.240247    2.165674
   -0.240247    0.240247    0.240247    2.165674
    0.240247   -0.240247   -0.240247    2.165674
   -0.240247   -0.240247   -0.240247    2.165674
    0.240247    0.240247   -0.240247    2.165674
    0.240247   -0.240247    0.240247    2.165674
   -0.240247    0.240247   -0.240247    2.165674
    0.240247    0.240247    0.240247    2.165674
   -0.240247   -0.240247    0.240247    2.165674
   -0.240247    0.240247    0.240247    2.165674
    0.240247   -0.240247   -0.240247    2.165674
   -0.240247   -0.240247   -0.240247    2.165674
    0.240247    0.240247   -0.240247    2.165674
    0.240247   -0.240247    0.240247    2.165674
   -0.240247    0.240247   -0.240247    2.165674
    0.240247    0.240247    0.240247    2.165674
   -0.240247   -0.240247    0.240247    2.165674
   -0.240247    0.240247    0.240247    2.165674
    0.240247   -0.240247   -0.240247    2.165674
   -0.240247   -0.240247   -0.240247    2.165674
    0.240247    0.240247   -0.240247    2.165674
    0.240247   -0.240247    0.240247    2.165674
   -0.240247    0.240247   -0.240247    2.165674
    0.240247    0.240247    0.240247    2.165674
   -0.240247   -0.240247    0.240247    2.165674
   -0.240247    0.240247    0.240247    2.165674
    0.240247   -0.240247   -0.240247    2.165674
   -0.240247   -0.240247   -0.240247    2.165674
    0.240247    0.240247   -0.240247    2.165674
    0.240247   -0.240247    0.240247    2.165674
    0.240247    0.240247    0.240247    2.165674
   -0.240247   -0.240247    0.240247    2.165674
   -0.240247    0.240247   -0.240247    2.165674
    0.240247   -0.240247   -0.240247    2.165674
   -0.240247   -0.240247   -0.240247    2.165674
   -0.240247    0.240247    0.240247    2.165674
    0.240247    0.240247   -0.240247    2.165674
   -0.240247   -0.240247   -0.240247    2.165674
   -0.240247    0.240247   -0.240247    2.165674
    0.240247    0.240247    0.240247    2.165674
   -0.240247   -0.240247    0.240247    2.165674
   -0.240247    0.240247    0.240247    2.165674
    0.240247   -0.240247   -0.240247    2.165674
    0.240247   -0.240247    0.240247    2.165674
    0.240247   -0.240247   -0.240247    2.165674
    0.240247    0.240247   -0.240247    2.165674
   -0.240247   -0.240247   -0.240247    2.165674
    0.240247   -0.240247    0.240247    2.165674
   -0.240247    0.240247   -0.240247    2.165674
    0.240247    0.240247    0.240247    2.165674
   -0.240247   -0.240247    0.240247    2.165674
   -0.240247    0.240247    0.240247    2.165674
    0.240247   -0.240247   -0.240247    2.165674
    0.240247    0.240247   -0.240247    2.165674
   -0.240247   -0.240247   -0.240247    2.165674
    0.240247   -0.240247    0.240247    2.165674
   -0.240247    0.240247   -0.240247    2.165674
    0.240247    0.240247    0.240247    2.165674
   -0.240247   -0.240247    0.240247    2.165674
   -0.240247    0.240247    0.240247    2.165674
    0.240247   -0.240247   -0.240247    2.165674
    0.240247    0.240247   -0.240247    2.165674
   -0.240247   -0.240247   -0.240247    2.165674
    0.240247   -0.240247    0.240247    2.165674
   -0.240247    0.240247   -0.240247    2.165674
    0.240247    0.240247    0.240247    2.165674
   -0.240247   -0.240247    0.240247    2.165674
   -0.240247    0.240247    0.240247    2.165674
    0.240247   -0.240247   -0.240247    2.165674
    0.240247    0.240247   -0.240247    2.165674
   -0.240247   -0.240247   -0.240247    2.165674
    0.240247   -0.240247    0.240247    2.165674
   -0.240247    0.240247   -0.240247    2.165674
    0.240247    0.240247    0.240247    2.165674
   -0.240247   -0.240247    0.240247    2.165674
   -0.240247    0.240247    0.240247    2.165674
    0.240247   -0.240247   -0.240247    2.165674
    0.240247    0.240247   -0.240247    2.165674
   -0.240247   -0.240247   -0.240247    2.165674
    0.240247   -0.240247    0.240247    2.165674
    0.240247    0.240247    0.240247    2.165674
   -0.240247   -0.240247    0.240247    2.165674
   -0.240247    0.240247   -0.240247    2.165674
   -0.240247    0.240247    0.240247    2.165674
    0.240247    0.240247   -0.240247    2.165674
   -0.240247   -0.240247   -0.240247    2.165674
   -0.240247    0.240247   -0.240247    2.165674
    0.240247    0.240247    0.240247    2.165674
   -0.240247   -0.240247    0.240247    2.165674
   -0.240247    0.240247    0.240247    2.165674
    0.240247   -0.240247   -0.240247    2.165674
    0.240247   -0.240247    0.240247    2.165674
    0.240247   -0.240247   -0.240247    2.165674
    0.240247    0.240247   -0.240247    2.165674
   -0.240247   -0.240247   -0.240247    2.165674
    0.240247   -0.240247    0.240247    2.165674
   -0.240247    0.240247   -0.240247    2.165674
    0.240247    0.240247    0.240247    2.165674
   -0.240247   -0.240247    0.240247    2.165674
   -0.240247    0.240247    0.240247    2.165674
    0.240247   -0.240247   -0.240247    2.165674
    0.240247    0.240247   -0.240247    2.165674
   -0.240247   -0.240247   -0.240247    2.165674
    0.240247   -0.240247    0.240247    2.165674
   -0.240247    0.240247   -0.240247    2.165674
    0.240247    0.240247    0.240247    2.165674
   -0.240247   -0.240247    0.240247    2.165674
   -0.240247    0.240247    0.240247    2.165674
    0.240247   -0.240247   -0.240247    2.165674
    0.240247    0.240247   -0.240247    2.165674
   -0.240247   -0.240247   -0.240247    2.165674
    0.240247   -0.240247    0.240247    2.165674
   -0.240247    0.240247   -0.240247    2.165674
    0.240247    0.240247    0.240247    2.165674
   -0.240247   -0.240247    0.240247    2.165674
   -0.240247    0.240247    0.240247    2.165674
    0.240247   -0.240247   -0.240247    2.165674
    0.240247    0.240247   -0.240247    2.165674
   -0.240247   -0.240247   -0.240247    2.165674
    0.240247   -0.240247    0.240247    2.165674
   -0.240247    0.240247   -0.240247    2.165674
    0.240247    0.240247    0.240247    2.165674
   -0.240247   -0.240247    0.240247    2.165674
   -0.240247    0.240247    0.240247    2.165674
    0.240247   -0.240247   -0.240247    2.165674
    0.240247    0.240247   -0.240247    2.165674
   -0.240247   -0.240247   -0.240247    2.165674
    0.240247   -0.240247    0.240247    2.165674
    0.240247    0.240247    0.240247    2.165674
   -0.240247   -0.240247    0.240247    2.165674
   -0.240247    0.240247   -0.240247    2.165674
   -0.240247    0.240247    0.240247    2.165674
    0.240247    0.240247   -0.240247    2.165674
   -0.240247   -0.240247   -0.240247    2.165674
   -0.240247    0.240247   -0.240247    2.165674
    0.240247    0.240247    0.240247    2.165674
   -0.240247   -0.240247    0.240247    2.165674
   -0.240247    0.240247    0.240247    2.165674
    0.240247   -0.240247   -0.240247    2.165674
    0.240247   -0.240247    0.240247    2.165674
    0.240247   -0.240247   -0.240247    2.165674
    0.240247    0.240247   -0.240247    2.165674
   -0.240247   -0.240247   -0.240247    2.165674
    0.240247   -0.240247    0.240247    2.165674
   -0.240247    0.240247   -0.240247    2.165674
    0.240247    0.240247    0.240247    2.165674
   -0.240247   -0.240247    0.240247    2.165674
   -0.240247    0.240247    0.240247    2.165674
    0.240247   -0.240247   -0.240247    2.165674
    0.240247    0.240247   -0.240247    2.165674
   -0.240247   -0.240247   -0.240247    2.165674
    0.240247   -0.240247    0.240247    2.165674
   -0.240247    0.240247   -0.240247    2.165674
    0.240247    0.240247    0.240247    2.165674
   -0.240247   -0.240247    0.240247    2.165674
   -0.240247    0.240247    0.240247    2.165674
    0.240247   -0.240247   -0.240247    2.165674
    0.240247    0.240247   -0.240247    2.165674
   -0.240247   -0.240247   -0.240247    2.165674
    0.240247   -0.240247    0.240247    2.165674
   -0.240247    0.240247   -0.240247    2.165674
    0.240247    0.240247    0.240247    2.165674
   -0.240247   -0.240247    0.240247    2.165674
   -0.240247    0.240247    0.240247    2.165674
    0.240247   -0.240247   -0.240247    2.165674
    0.240247    0.240247   -0.240247    2.165674
   -0.240247   -0.240247   -0.240247    2.165674
    0.240247   -0.240247    0.240247    2.165674
   -0.240247    0.240247   -0.240247    2.165674
    0.240247    0.240247    0.240247    2.165674
   -0.240247   -0.240247    0.240247    2.165674
   -0.240247    0.240247    0.240247    2.165674
    0.240247   -0.240247   -0.240247    2.165674
    0.240247    0.240247   -0.240247    2.165674
   -0.240247   -0.240247   -0.240247    2.165674
    0.240247   -0.240247    0.240247    2.165674
    0.240247    0.240247    0.240247    2.165674
   -0.240247   -0.240247    0.240247    2.165674
   -0.240247    0.240247   -0.240247    2.165674
   -0.240247    0.240247    0.240247    2.165674
    0.240247    0.240247   -0.240247    2.165674
   -0.240247   -0.240247   -0.240247    2.165674
   -0.240247    0.240247   -0.240247    2.165674
    0.240247    0.240247    0.240247    2.165674
   -0.240247   -0.240247    0.240247    2.165674
   -0.240247    0.240247    0.240247    2.165674
    0.240247   -0.240247   -0.240247    2.165674
    0.240247   -0.240247    0.240247    2.165674
    0.240247   -0.240247   -0.240247    2.165674
    0.240247    0.240247   -0.240247    2.165674
   -0.240247   -0.240247   -0.240247    2.165674
    0.240247   -0.240247    0.240247    2.165674
   -0.240247    0.240247   -0.240247    2.165674
    0.240247    0.240247    0.240247    2.165674
   -0.240247   -0.240247    0.240247    2.165674
   -0.240247    0.240247    0.240247    2.165674
    0.240247   -0.240247   -0.240247    2.165674
    0.240247    0.240247   -0.240247    2.165674
   -0.240247   -0.240247   -0.240247    2.165674
    0.240247   -0.240247    0.240247    2.165674
   -0.240247    0.240247   -0.240247    2.165674
    0.240247    0.240247    0.240247    2.165674
   -0.240247   -0.240247    0.240247    2.165674
   -0.240247    0.240247    0.240247    2.165674
    0.240247   -0.240247   -0.240247    2.165674
    0.240247    0.240247   -0.240247    2.165674
   -0.240247   -0.240247   -0.240247    2.165674
    0.240247   -0.240247    0.240247    2.165674
   -0.240247    0.240247   -0.240247    2.165674
    0.240247    0.240247    0.240247    2.165674
   -0.240247   -0.240247    0.240247    2.165674
   -0.240247    0.240247    0.240247    2.165674
    0.240247   -0.240247   -0.240247    2.165674
    0.240247    0.240247   -0.240247    2.165674
   -0.240247   -0.240247   -0.240247    2.165674
    0.240247   -0.240247    0.240247    2.165674
   -0.240247    0.240247   -0.240247    2.165674
    0.240247    0.240247    0.240247    2.165674
   -0.240247   -0.240247    0.240247    2.165674
   -0.240247    0.240247    0.240247    2.165674
    0.240247   -0.240247   -0.240247    2.165674
    0.240247    0.240247   -0.240247    2.165674
   -0.240247   -0.240247   -0.240247    2.165674
    0.240247   -0.240247    0.240247    2.165674
    0.240247    0.240247    0.240247    2.165674
   -0.240247   -0.240247    0.240247    2.165674
   -0.240247    0.240247   -0.240247    2.165674
   -0.240247    0.240247    0.240247    2.165674
    0.240247    0.240247   -0.240247    2.165674
   -0.240247   -0.240247   -0.240247    2.165674
   -0.240247    0.240247   -0.240247    2.165674
   -0.240247   -0.240247    0.240247    2.165674
    0.240247    0.240247    0.240247    2.165674
    0.240247   -0.240247   -0.240247    2.165674
    0.240247   -0.240247    0.240247    2.165674
   -0.240247    0.240247    0.240247    2.165674
    0.240247   -0.240247   -0.240247    2.165674
    0.240247    0.240247   -0.240247    2.165674
   -0.240247   -0.240247   -0.240247    2.165674
    0.240247   -0.240247    0.240247    2.165674
   -0.240247    0.240247   -0.240247    2.165674
   -0.240247   -0.240247    0.240247    2.165674
    0.240247    0.240247    0.240247    2.165674
   -0.240247    0.240247    0.240247    2.165674
    0.240247   -0.240247   -0.240247    2.165674
    0.240247    0.240247   -0.240247    2.165674
   -0.240247   -0.240247   -0.240247    2.165674
    0.240247   -0.240247    0.240247    2.165674
   -0.240247    0.240247   -0.240247    2.165674
   -0.240247   -0.240247    0.240247    2.165674
    0.240247    0.240247    0.240247    2.165674
   -0.240247    0.240247    0.240247    2.165674
    0.240247   -0.240247   -0.240247    2.165674
    0.240247    0.240247   -0.240247    2.165674
   -0.240247   -0.240247   -0.240247    2.165674
    0.240247   -0.240247    0.240247    2.165674
   -0.240247    0.240247   -0.240247    2.165674
   -0.240247   -0.240247    0.240247    2.165674
    0.240247    0.240247    0.240247    2.165674
   -0.240247    0.240247    0.240247    2.165674
    0.240247   -0.240247   -0.240247    2.165674
    0.240247    0.240247   -0.240247    2.165674
   -0.240247   -0.240247   -0.240247    2.165674
    0.240247   -0.240247    0.240247    2.165674
   -0.240247    0.240247   -0.240247    2.165674
   -0.240247   -0.240247    0.240247    2.165674
    0.240247    0.240247    0.240247    2.165674
   -0.240247    0.240247    0.240247    2.165674
    0.240247   -0.240247   -0.240247    2.165674
    0.240247    0.240247   -0.240247    2.165674
   -0.240247   -0.240247   -0.240247    2.165674
    0.240247   -0.240247    0.240247    2.165674
   -0.240247    0.240247    0.240247    2.165674
   -0.240247   -0.240247    0.240247    2.165674
    0.240247    0.240247    0.240247    2.165674
   -0.240247    0.240247   -0.240247    2.165674
