                                                                                      
                                       ``:oss/                                        
                           `.+s+.     .+ys--yh+     `./ss+.                           
                          -sh//yy+`   +yy   +yy    -+h+-oyy                           
                          -yh- .oyy/.-sh.   .syo-.:sy-  /yh                           
                 `.-.`    `yh+   -oyyyo.     `/syys:    oys      `.`                  
               `/+ssys+-` `sh+      `                   oys`   .:osyo`                
               -yh- ./syyooyo`                          .sys+/oyo--yh/                
               `yy+    .-:-.                             `-/+/:`  -sh-                
                /yh.                                              oys                 
          ``..---hho---------`   .---------..`      `.-----.`    -hd+---.             
       `./osmNMMMMMMMMMMMMMMMs. +NNMMMMMMMMNNmh+.   yNMMMMMNm-  oNMMMMMNmo++:`        
       +sy--/sdMMMhyyyyyyyNMMh- .oyNMMmyyyyyhNMMm+` -yMMMdyyo:` .oyyNMMNhs+syy`       
       -yy/   /MMM+.`-+/``mMMy-   `mMMh:`````.dMMN:` `MMMy-`-dhhy```mMMy:``+hs        
        -yy+` /MMMo:-mMM+`-oo/.    mMMh:     `dMMN/`  dMMm:`dMMMMy..MMMo-.+yo`        
         .sys`/MMMMNNMMMs-         mMMmyooooymMMNo:   oMMM/sMMMMMM++MMN//oh:          
          `sh+/MMMhyyMMMs- `-`     mMMMMMMMMMNmy+-`   -MMMhMMMsmMMmdMMd/yy+           
    `-/+++oyy-/MMM+.`/hh/.`mNm:`   mMMd+/////:-.`      NMMMMMd/:NMMMMMy:/yyo/:.`      
   +os+//:-..-oMMMo:--:::-/MMMo. .-mMMd+---`           hMMMMN+. oMMMMMo. `-+osyso:`   
   syo     `mNMMMMMNNNNNNNNMMMo.oNNMMMMMNNNN:`         +MMMMs:`  dMMMN/`     ``:syo   
   /yh`     :syyyyyyyyyyyyyyyy+.`+syyyyyyyyo:`         .oyys:`   .oyys:`        +yh   
   -yh-        ````````````````    `````````              ``        ``          oys   
   -+h/------------------------::::::::://////++++++++++++++++++++++///////::::/yd:   
   shdddddddddddddddddddddddddddddhhhhhhhhyyyyyssssssssssssssssyyyyyyyhhhhhhhddddh`   
                                                                                      
  S. Ponce, E. R. Margine, C. Verdi, and F. Giustino,                                 
                                                Comput. Phys. Commun. 209, 116 (2016) 
                                                                                      

     Program EPW v.5.3.1 starts on 15Jun2021 at 22: 7:27 

     This program is part of the open-source Quantum ESPRESSO suite
     for quantum simulation of materials; please cite
         "P. Giannozzi et al., J. Phys.:Condens. Matter 21 395502 (2009);
         "P. Giannozzi et al., J. Phys.:Condens. Matter 29 465901 (2017);
          URL http://www.quantum-espresso.org", 
     in publications or presentations arising from this work. More details at
     http://www.quantum-espresso.org/quote

     Parallel version (MPI & OpenMP), running on       4 processor cores
     Number of MPI processes:                 4
     Threads/MPI process:                     1

     MPI processes distributed on     1 nodes
     K-points division:     npool     =       4
     Reading input from sic.epw1.in

     No temperature supplied. Setting temps(:) to 300 K.

     Reading xml data from directory:

     ./sic.save/
     file C.UPF: wavefunction(s)  3d renormalized

     IMPORTANT: XC functional enforced from input :
     Exchange-correlation= PZ
                           (   1   1   0   0   0   0   0)
     Any further DFT definition will be discarded
     Please, verify this is what you really want


     G-vector sticks info
     --------------------
     sticks:   dense  smooth     PW     G-vecs:    dense   smooth      PW
     Sum         283     283    109                 3119     3119     725

     Reading collected, re-writing distributed wavefunctions

     --                                                                         

     bravais-lattice index     =            2
     lattice parameter (a_0)   =       8.2370  a.u.
     unit-cell volume          =     139.7163 (a.u.)^3
     number of atoms/cell      =            2
     number of atomic types    =            2
     kinetic-energy cut-off    =      30.0000  Ry
     charge density cut-off    =     120.0000  Ry
     Exchange-correlation= PZ
                           (   1   1   0   0   0   0   0)


     celldm(1)=    8.23700  celldm(2)=    0.00000  celldm(3)=    0.00000
     celldm(4)=    0.00000  celldm(5)=    0.00000  celldm(6)=    0.00000

     crystal axes: (cart. coord. in units of a_0)
               a(1) = ( -0.5000  0.0000  0.5000 )  
               a(2) = (  0.0000  0.5000  0.5000 )  
               a(3) = ( -0.5000  0.5000  0.0000 )  

     reciprocal axes: (cart. coord. in units 2 pi/a_0)
               b(1) = ( -1.0000 -1.0000  1.0000 )  
               b(2) = (  1.0000  1.0000  1.0000 )  
               b(3) = ( -1.0000  1.0000 -1.0000 )  


     Atoms inside the unit cell: 

   Cartesian axes

     site n.  atom      mass           positions (a_0 units)
        1        Si  28.0855   tau( 1) = (    0.00000    0.00000    0.00000  )
        2        C   12.0108   tau( 2) = (    0.25000    0.25000    0.25000  )

     25 Sym.Ops. (with q -> -q+G )


     G cutoff =  206.2337  (   3119 G-vectors)     FFT grid: ( 24, 24, 24)
     number of k points=  216
                       cart. coord. in units 2pi/a_0
        k(    1) = (   0.0000000   0.0000000   0.0000000), wk =   0.0092593
        k(    2) = (  -0.1666667   0.1666667  -0.1666667), wk =   0.0092593
        k(    3) = (  -0.3333333   0.3333333  -0.3333333), wk =   0.0092593
        k(    4) = (  -0.5000000   0.5000000  -0.5000000), wk =   0.0092593
        k(    5) = (  -0.6666667   0.6666667  -0.6666667), wk =   0.0092593
        k(    6) = (  -0.8333333   0.8333333  -0.8333333), wk =   0.0092593
        k(    7) = (   0.1666667   0.1666667   0.1666667), wk =   0.0092593
        k(    8) = (   0.0000000   0.3333333   0.0000000), wk =   0.0092593
        k(    9) = (  -0.1666667   0.5000000  -0.1666667), wk =   0.0092593
        k(   10) = (  -0.3333333   0.6666667  -0.3333333), wk =   0.0092593
        k(   11) = (  -0.5000000   0.8333333  -0.5000000), wk =   0.0092593
        k(   12) = (  -0.6666667   1.0000000  -0.6666667), wk =   0.0092593
        k(   13) = (   0.3333333   0.3333333   0.3333333), wk =   0.0092593
        k(   14) = (   0.1666667   0.5000000   0.1666667), wk =   0.0092593
        k(   15) = (   0.0000000   0.6666667   0.0000000), wk =   0.0092593
        k(   16) = (  -0.1666667   0.8333333  -0.1666667), wk =   0.0092593
        k(   17) = (  -0.3333333   1.0000000  -0.3333333), wk =   0.0092593
        k(   18) = (  -0.5000000   1.1666667  -0.5000000), wk =   0.0092593
        k(   19) = (   0.5000000   0.5000000   0.5000000), wk =   0.0092593
        k(   20) = (   0.3333333   0.6666667   0.3333333), wk =   0.0092593
        k(   21) = (   0.1666667   0.8333333   0.1666667), wk =   0.0092593
        k(   22) = (   0.0000000   1.0000000   0.0000000), wk =   0.0092593
        k(   23) = (  -0.1666667   1.1666667  -0.1666667), wk =   0.0092593
        k(   24) = (  -0.3333333   1.3333333  -0.3333333), wk =   0.0092593
        k(   25) = (   0.6666667   0.6666667   0.6666667), wk =   0.0092593
        k(   26) = (   0.5000000   0.8333333   0.5000000), wk =   0.0092593
        k(   27) = (   0.3333333   1.0000000   0.3333333), wk =   0.0092593
        k(   28) = (   0.1666667   1.1666667   0.1666667), wk =   0.0092593
        k(   29) = (   0.0000000   1.3333333   0.0000000), wk =   0.0092593
        k(   30) = (  -0.1666667   1.5000000  -0.1666667), wk =   0.0092593
        k(   31) = (   0.8333333   0.8333333   0.8333333), wk =   0.0092593
        k(   32) = (   0.6666667   1.0000000   0.6666667), wk =   0.0092593
        k(   33) = (   0.5000000   1.1666667   0.5000000), wk =   0.0092593
        k(   34) = (   0.3333333   1.3333333   0.3333333), wk =   0.0092593
        k(   35) = (   0.1666667   1.5000000   0.1666667), wk =   0.0092593
        k(   36) = (   0.0000000   1.6666667   0.0000000), wk =   0.0092593
        k(   37) = (  -0.1666667  -0.1666667   0.1666667), wk =   0.0092593
        k(   38) = (  -0.3333333   0.0000000   0.0000000), wk =   0.0092593
        k(   39) = (  -0.5000000   0.1666667  -0.1666667), wk =   0.0092593
        k(   40) = (  -0.6666667   0.3333333  -0.3333333), wk =   0.0092593
        k(   41) = (  -0.8333333   0.5000000  -0.5000000), wk =   0.0092593
        k(   42) = (  -1.0000000   0.6666667  -0.6666667), wk =   0.0092593
        k(   43) = (   0.0000000   0.0000000   0.3333333), wk =   0.0092593
        k(   44) = (  -0.1666667   0.1666667   0.1666667), wk =   0.0092593
        k(   45) = (  -0.3333333   0.3333333   0.0000000), wk =   0.0092593
        k(   46) = (  -0.5000000   0.5000000  -0.1666667), wk =   0.0092593
        k(   47) = (  -0.6666667   0.6666667  -0.3333333), wk =   0.0092593
        k(   48) = (  -0.8333333   0.8333333  -0.5000000), wk =   0.0092593
        k(   49) = (   0.1666667   0.1666667   0.5000000), wk =   0.0092593
        k(   50) = (  -0.0000000   0.3333333   0.3333333), wk =   0.0092593
        k(   51) = (  -0.1666667   0.5000000   0.1666667), wk =   0.0092593
        k(   52) = (  -0.3333333   0.6666667   0.0000000), wk =   0.0092593
        k(   53) = (  -0.5000000   0.8333333  -0.1666667), wk =   0.0092593
        k(   54) = (  -0.6666667   1.0000000  -0.3333333), wk =   0.0092593
        k(   55) = (   0.3333333   0.3333333   0.6666667), wk =   0.0092593
        k(   56) = (   0.1666667   0.5000000   0.5000000), wk =   0.0092593
        k(   57) = (   0.0000000   0.6666667   0.3333333), wk =   0.0092593
        k(   58) = (  -0.1666667   0.8333333   0.1666667), wk =   0.0092593
        k(   59) = (  -0.3333333   1.0000000   0.0000000), wk =   0.0092593
        k(   60) = (  -0.5000000   1.1666667  -0.1666667), wk =   0.0092593
        k(   61) = (   0.5000000   0.5000000   0.8333333), wk =   0.0092593
        k(   62) = (   0.3333333   0.6666667   0.6666667), wk =   0.0092593
        k(   63) = (   0.1666667   0.8333333   0.5000000), wk =   0.0092593
        k(   64) = (   0.0000000   1.0000000   0.3333333), wk =   0.0092593
        k(   65) = (  -0.1666667   1.1666667   0.1666667), wk =   0.0092593
        k(   66) = (  -0.3333333   1.3333333   0.0000000), wk =   0.0092593
        k(   67) = (   0.6666667   0.6666667   1.0000000), wk =   0.0092593
        k(   68) = (   0.5000000   0.8333333   0.8333333), wk =   0.0092593
        k(   69) = (   0.3333333   1.0000000   0.6666667), wk =   0.0092593
        k(   70) = (   0.1666667   1.1666667   0.5000000), wk =   0.0092593
        k(   71) = (  -0.0000000   1.3333333   0.3333333), wk =   0.0092593
        k(   72) = (  -0.1666667   1.5000000   0.1666667), wk =   0.0092593
        k(   73) = (  -0.3333333  -0.3333333   0.3333333), wk =   0.0092593
        k(   74) = (  -0.5000000  -0.1666667   0.1666667), wk =   0.0092593
        k(   75) = (  -0.6666667   0.0000000   0.0000000), wk =   0.0092593
        k(   76) = (  -0.8333333   0.1666667  -0.1666667), wk =   0.0092593
        k(   77) = (  -1.0000000   0.3333333  -0.3333333), wk =   0.0092593
        k(   78) = (  -1.1666667   0.5000000  -0.5000000), wk =   0.0092593
        k(   79) = (  -0.1666667  -0.1666667   0.5000000), wk =   0.0092593
        k(   80) = (  -0.3333333   0.0000000   0.3333333), wk =   0.0092593
        k(   81) = (  -0.5000000   0.1666667   0.1666667), wk =   0.0092593
        k(   82) = (  -0.6666667   0.3333333   0.0000000), wk =   0.0092593
        k(   83) = (  -0.8333333   0.5000000  -0.1666667), wk =   0.0092593
        k(   84) = (  -1.0000000   0.6666667  -0.3333333), wk =   0.0092593
        k(   85) = (   0.0000000   0.0000000   0.6666667), wk =   0.0092593
        k(   86) = (  -0.1666667   0.1666667   0.5000000), wk =   0.0092593
        k(   87) = (  -0.3333333   0.3333333   0.3333333), wk =   0.0092593
        k(   88) = (  -0.5000000   0.5000000   0.1666667), wk =   0.0092593
        k(   89) = (  -0.6666667   0.6666667  -0.0000000), wk =   0.0092593
        k(   90) = (  -0.8333333   0.8333333  -0.1666667), wk =   0.0092593
        k(   91) = (   0.1666667   0.1666667   0.8333333), wk =   0.0092593
        k(   92) = (   0.0000000   0.3333333   0.6666667), wk =   0.0092593
        k(   93) = (  -0.1666667   0.5000000   0.5000000), wk =   0.0092593
        k(   94) = (  -0.3333333   0.6666667   0.3333333), wk =   0.0092593
        k(   95) = (  -0.5000000   0.8333333   0.1666667), wk =   0.0092593
        k(   96) = (  -0.6666667   1.0000000   0.0000000), wk =   0.0092593
        k(   97) = (   0.3333333   0.3333333   1.0000000), wk =   0.0092593
        k(   98) = (   0.1666667   0.5000000   0.8333333), wk =   0.0092593
        k(   99) = (   0.0000000   0.6666667   0.6666667), wk =   0.0092593
        k(  100) = (  -0.1666667   0.8333333   0.5000000), wk =   0.0092593
        k(  101) = (  -0.3333333   1.0000000   0.3333333), wk =   0.0092593
        k(  102) = (  -0.5000000   1.1666667   0.1666667), wk =   0.0092593
        k(  103) = (   0.5000000   0.5000000   1.1666667), wk =   0.0092593
        k(  104) = (   0.3333333   0.6666667   1.0000000), wk =   0.0092593
        k(  105) = (   0.1666667   0.8333333   0.8333333), wk =   0.0092593
        k(  106) = (   0.0000000   1.0000000   0.6666667), wk =   0.0092593
        k(  107) = (  -0.1666667   1.1666667   0.5000000), wk =   0.0092593
        k(  108) = (  -0.3333333   1.3333333   0.3333333), wk =   0.0092593
        k(  109) = (  -0.5000000  -0.5000000   0.5000000), wk =   0.0092593
        k(  110) = (  -0.6666667  -0.3333333   0.3333333), wk =   0.0092593
        k(  111) = (  -0.8333333  -0.1666667   0.1666667), wk =   0.0092593
        k(  112) = (  -1.0000000   0.0000000   0.0000000), wk =   0.0092593
        k(  113) = (  -1.1666667   0.1666667  -0.1666667), wk =   0.0092593
        k(  114) = (  -1.3333333   0.3333333  -0.3333333), wk =   0.0092593
        k(  115) = (  -0.3333333  -0.3333333   0.6666667), wk =   0.0092593
        k(  116) = (  -0.5000000  -0.1666667   0.5000000), wk =   0.0092593
        k(  117) = (  -0.6666667   0.0000000   0.3333333), wk =   0.0092593
        k(  118) = (  -0.8333333   0.1666667   0.1666667), wk =   0.0092593
        k(  119) = (  -1.0000000   0.3333333   0.0000000), wk =   0.0092593
        k(  120) = (  -1.1666667   0.5000000  -0.1666667), wk =   0.0092593
        k(  121) = (  -0.1666667  -0.1666667   0.8333333), wk =   0.0092593
        k(  122) = (  -0.3333333  -0.0000000   0.6666667), wk =   0.0092593
        k(  123) = (  -0.5000000   0.1666667   0.5000000), wk =   0.0092593
        k(  124) = (  -0.6666667   0.3333333   0.3333333), wk =   0.0092593
        k(  125) = (  -0.8333333   0.5000000   0.1666667), wk =   0.0092593
        k(  126) = (  -1.0000000   0.6666667   0.0000000), wk =   0.0092593
        k(  127) = (   0.0000000   0.0000000   1.0000000), wk =   0.0092593
        k(  128) = (  -0.1666667   0.1666667   0.8333333), wk =   0.0092593
        k(  129) = (  -0.3333333   0.3333333   0.6666667), wk =   0.0092593
        k(  130) = (  -0.5000000   0.5000000   0.5000000), wk =   0.0092593
        k(  131) = (  -0.6666667   0.6666667   0.3333333), wk =   0.0092593
        k(  132) = (  -0.8333333   0.8333333   0.1666667), wk =   0.0092593
        k(  133) = (   0.1666667   0.1666667   1.1666667), wk =   0.0092593
        k(  134) = (   0.0000000   0.3333333   1.0000000), wk =   0.0092593
        k(  135) = (  -0.1666667   0.5000000   0.8333333), wk =   0.0092593
        k(  136) = (  -0.3333333   0.6666667   0.6666667), wk =   0.0092593
        k(  137) = (  -0.5000000   0.8333333   0.5000000), wk =   0.0092593
        k(  138) = (  -0.6666667   1.0000000   0.3333333), wk =   0.0092593
        k(  139) = (   0.3333333   0.3333333   1.3333333), wk =   0.0092593
        k(  140) = (   0.1666667   0.5000000   1.1666667), wk =   0.0092593
        k(  141) = (   0.0000000   0.6666667   1.0000000), wk =   0.0092593
        k(  142) = (  -0.1666667   0.8333333   0.8333333), wk =   0.0092593
        k(  143) = (  -0.3333333   1.0000000   0.6666667), wk =   0.0092593
        k(  144) = (  -0.5000000   1.1666667   0.5000000), wk =   0.0092593
        k(  145) = (  -0.6666667  -0.6666667   0.6666667), wk =   0.0092593
        k(  146) = (  -0.8333333  -0.5000000   0.5000000), wk =   0.0092593
        k(  147) = (  -1.0000000  -0.3333333   0.3333333), wk =   0.0092593
        k(  148) = (  -1.1666667  -0.1666667   0.1666667), wk =   0.0092593
        k(  149) = (  -1.3333333   0.0000000   0.0000000), wk =   0.0092593
        k(  150) = (  -1.5000000   0.1666667  -0.1666667), wk =   0.0092593
        k(  151) = (  -0.5000000  -0.5000000   0.8333333), wk =   0.0092593
        k(  152) = (  -0.6666667  -0.3333333   0.6666667), wk =   0.0092593
        k(  153) = (  -0.8333333  -0.1666667   0.5000000), wk =   0.0092593
        k(  154) = (  -1.0000000   0.0000000   0.3333333), wk =   0.0092593
        k(  155) = (  -1.1666667   0.1666667   0.1666667), wk =   0.0092593
        k(  156) = (  -1.3333333   0.3333333   0.0000000), wk =   0.0092593
        k(  157) = (  -0.3333333  -0.3333333   1.0000000), wk =   0.0092593
        k(  158) = (  -0.5000000  -0.1666667   0.8333333), wk =   0.0092593
        k(  159) = (  -0.6666667  -0.0000000   0.6666667), wk =   0.0092593
        k(  160) = (  -0.8333333   0.1666667   0.5000000), wk =   0.0092593
        k(  161) = (  -1.0000000   0.3333333   0.3333333), wk =   0.0092593
        k(  162) = (  -1.1666667   0.5000000   0.1666667), wk =   0.0092593
        k(  163) = (  -0.1666667  -0.1666667   1.1666667), wk =   0.0092593
        k(  164) = (  -0.3333333  -0.0000000   1.0000000), wk =   0.0092593
        k(  165) = (  -0.5000000   0.1666667   0.8333333), wk =   0.0092593
        k(  166) = (  -0.6666667   0.3333333   0.6666667), wk =   0.0092593
        k(  167) = (  -0.8333333   0.5000000   0.5000000), wk =   0.0092593
        k(  168) = (  -1.0000000   0.6666667   0.3333333), wk =   0.0092593
        k(  169) = (   0.0000000   0.0000000   1.3333333), wk =   0.0092593
        k(  170) = (  -0.1666667   0.1666667   1.1666667), wk =   0.0092593
        k(  171) = (  -0.3333333   0.3333333   1.0000000), wk =   0.0092593
        k(  172) = (  -0.5000000   0.5000000   0.8333333), wk =   0.0092593
        k(  173) = (  -0.6666667   0.6666667   0.6666667), wk =   0.0092593
        k(  174) = (  -0.8333333   0.8333333   0.5000000), wk =   0.0092593
        k(  175) = (   0.1666667   0.1666667   1.5000000), wk =   0.0092593
        k(  176) = (  -0.0000000   0.3333333   1.3333333), wk =   0.0092593
        k(  177) = (  -0.1666667   0.5000000   1.1666667), wk =   0.0092593
        k(  178) = (  -0.3333333   0.6666667   1.0000000), wk =   0.0092593
        k(  179) = (  -0.5000000   0.8333333   0.8333333), wk =   0.0092593
        k(  180) = (  -0.6666667   1.0000000   0.6666667), wk =   0.0092593
        k(  181) = (  -0.8333333  -0.8333333   0.8333333), wk =   0.0092593
        k(  182) = (  -1.0000000  -0.6666667   0.6666667), wk =   0.0092593
        k(  183) = (  -1.1666667  -0.5000000   0.5000000), wk =   0.0092593
        k(  184) = (  -1.3333333  -0.3333333   0.3333333), wk =   0.0092593
        k(  185) = (  -1.5000000  -0.1666667   0.1666667), wk =   0.0092593
        k(  186) = (  -1.6666667   0.0000000   0.0000000), wk =   0.0092593
        k(  187) = (  -0.6666667  -0.6666667   1.0000000), wk =   0.0092593
        k(  188) = (  -0.8333333  -0.5000000   0.8333333), wk =   0.0092593
        k(  189) = (  -1.0000000  -0.3333333   0.6666667), wk =   0.0092593
        k(  190) = (  -1.1666667  -0.1666667   0.5000000), wk =   0.0092593
        k(  191) = (  -1.3333333   0.0000000   0.3333333), wk =   0.0092593
        k(  192) = (  -1.5000000   0.1666667   0.1666667), wk =   0.0092593
        k(  193) = (  -0.5000000  -0.5000000   1.1666667), wk =   0.0092593
        k(  194) = (  -0.6666667  -0.3333333   1.0000000), wk =   0.0092593
        k(  195) = (  -0.8333333  -0.1666667   0.8333333), wk =   0.0092593
        k(  196) = (  -1.0000000   0.0000000   0.6666667), wk =   0.0092593
        k(  197) = (  -1.1666667   0.1666667   0.5000000), wk =   0.0092593
        k(  198) = (  -1.3333333   0.3333333   0.3333333), wk =   0.0092593
        k(  199) = (  -0.3333333  -0.3333333   1.3333333), wk =   0.0092593
        k(  200) = (  -0.5000000  -0.1666667   1.1666667), wk =   0.0092593
        k(  201) = (  -0.6666667   0.0000000   1.0000000), wk =   0.0092593
        k(  202) = (  -0.8333333   0.1666667   0.8333333), wk =   0.0092593
        k(  203) = (  -1.0000000   0.3333333   0.6666667), wk =   0.0092593
        k(  204) = (  -1.1666667   0.5000000   0.5000000), wk =   0.0092593
        k(  205) = (  -0.1666667  -0.1666667   1.5000000), wk =   0.0092593
        k(  206) = (  -0.3333333   0.0000000   1.3333333), wk =   0.0092593
        k(  207) = (  -0.5000000   0.1666667   1.1666667), wk =   0.0092593
        k(  208) = (  -0.6666667   0.3333333   1.0000000), wk =   0.0092593
        k(  209) = (  -0.8333333   0.5000000   0.8333333), wk =   0.0092593
        k(  210) = (  -1.0000000   0.6666667   0.6666667), wk =   0.0092593
        k(  211) = (   0.0000000   0.0000000   1.6666667), wk =   0.0092593
        k(  212) = (  -0.1666667   0.1666667   1.5000000), wk =   0.0092593
        k(  213) = (  -0.3333333   0.3333333   1.3333333), wk =   0.0092593
        k(  214) = (  -0.5000000   0.5000000   1.1666667), wk =   0.0092593
        k(  215) = (  -0.6666667   0.6666667   1.0000000), wk =   0.0092593
        k(  216) = (  -0.8333333   0.8333333   0.8333333), wk =   0.0092593

     PseudoPot. # 1 for Si read from file:
     ../Si.pz-vbc.UPF
     MD5 check sum: 6dfa03ddd5817404712e03e4d12deb78
     Pseudo is Norm-conserving, Zval =  4.0
     Generated by new atomic code, or converted to UPF format
     Using radial grid of  431 points,  2 beta functions with: 
                l(1) =   0
                l(2) =   1

     PseudoPot. # 2 for C  read from file:
     ../C.UPF
     MD5 check sum: 4781e8ce5ee01a432381f51d0ea25c53
     Pseudo is Norm-conserving, Zval =  4.0
     Generated by new atomic code, or converted to UPF format
     Using radial grid of  461 points,  2 beta functions with: 
                l(1) =   0
                l(2) =   1
     EPW          :      0.28s CPU      0.31s WALL

     EPW          :      0.30s CPU      0.33s WALL

     -------------------------------------------------------------------
     Wannierization on  6 x  6 x  6 electronic grid
     -------------------------------------------------------------------

     Spin CASE ( default = unpolarized )

     Initializing Wannier90


     Initial Wannier projections

     (   0.00000   0.00000   0.00000) :  l =  -3 mr =   1
     (   0.00000   0.00000   0.00000) :  l =  -3 mr =   2
     (   0.00000   0.00000   0.00000) :  l =  -3 mr =   3
     (   0.00000   0.00000   0.00000) :  l =  -3 mr =   4

      - Number of bands is (  4)
      - Number of total bands is (  4)
      - Number of excluded bands is (  0)
      - Number of wannier functions is (  4)
      - All guiding functions are given 

  Reading data about k-point neighbours 

      - All neighbours are found 

     AMN
      k points =   216 in    4 pools
            1 of   54 on ionode
            2 of   54 on ionode
            3 of   54 on ionode
            4 of   54 on ionode
            5 of   54 on ionode
            6 of   54 on ionode
            7 of   54 on ionode
            8 of   54 on ionode
            9 of   54 on ionode
           10 of   54 on ionode
           11 of   54 on ionode
           12 of   54 on ionode
           13 of   54 on ionode
           14 of   54 on ionode
           15 of   54 on ionode
           16 of   54 on ionode
           17 of   54 on ionode
           18 of   54 on ionode
           19 of   54 on ionode
           20 of   54 on ionode
           21 of   54 on ionode
           22 of   54 on ionode
           23 of   54 on ionode
           24 of   54 on ionode
           25 of   54 on ionode
           26 of   54 on ionode
           27 of   54 on ionode
           28 of   54 on ionode
           29 of   54 on ionode
           30 of   54 on ionode
           31 of   54 on ionode
           32 of   54 on ionode
           33 of   54 on ionode
           34 of   54 on ionode
           35 of   54 on ionode
           36 of   54 on ionode
           37 of   54 on ionode
           38 of   54 on ionode
           39 of   54 on ionode
           40 of   54 on ionode
           41 of   54 on ionode
           42 of   54 on ionode
           43 of   54 on ionode
           44 of   54 on ionode
           45 of   54 on ionode
           46 of   54 on ionode
           47 of   54 on ionode
           48 of   54 on ionode
           49 of   54 on ionode
           50 of   54 on ionode
           51 of   54 on ionode
           52 of   54 on ionode
           53 of   54 on ionode
           54 of   54 on ionode

     AMN calculated

     MMN
      k points =   216 in    4 pools
            1 of   54 on ionode
            2 of   54 on ionode
            3 of   54 on ionode
            4 of   54 on ionode
            5 of   54 on ionode
            6 of   54 on ionode
            7 of   54 on ionode
            8 of   54 on ionode
            9 of   54 on ionode
           10 of   54 on ionode
           11 of   54 on ionode
           12 of   54 on ionode
           13 of   54 on ionode
           14 of   54 on ionode
           15 of   54 on ionode
           16 of   54 on ionode
           17 of   54 on ionode
           18 of   54 on ionode
           19 of   54 on ionode
           20 of   54 on ionode
           21 of   54 on ionode
           22 of   54 on ionode
           23 of   54 on ionode
           24 of   54 on ionode
           25 of   54 on ionode
           26 of   54 on ionode
           27 of   54 on ionode
           28 of   54 on ionode
           29 of   54 on ionode
           30 of   54 on ionode
           31 of   54 on ionode
           32 of   54 on ionode
           33 of   54 on ionode
           34 of   54 on ionode
           35 of   54 on ionode
           36 of   54 on ionode
           37 of   54 on ionode
           38 of   54 on ionode
           39 of   54 on ionode
           40 of   54 on ionode
           41 of   54 on ionode
           42 of   54 on ionode
           43 of   54 on ionode
           44 of   54 on ionode
           45 of   54 on ionode
           46 of   54 on ionode
           47 of   54 on ionode
           48 of   54 on ionode
           49 of   54 on ionode
           50 of   54 on ionode
           51 of   54 on ionode
           52 of   54 on ionode
           53 of   54 on ionode
           54 of   54 on ionode
     MMN calculated

     Running Wannier90

     Wannier Function centers (cartesian, alat) and spreads (ang):

     (   0.16293   0.16293   0.16293) :   1.12254
     (   0.16293  -0.16293  -0.16293) :   1.12254
     (  -0.16293   0.16293  -0.16293) :   1.12254
     (  -0.16293  -0.16293   0.16293) :   1.12254

     -------------------------------------------------------------------
     WANNIER      :      3.29s CPU      3.44s WALL (       1 calls)
     -------------------------------------------------------------------

     Calculating kgmap

     Progress kgmap: ########################################
     kmaps        :      0.01s CPU      0.01s WALL (       1 calls)
     Symmetries of Bravais lattice:  48
     Symmetries of crystal:          24


     ===================================================================
     irreducible q point #    1
     ===================================================================

     Symmetries of small group of q: 24
          in addition sym. q -> -q+G:

     Number of q in the star =    1
     List of q in the star:
          1   0.000000000   0.000000000   0.000000000
     Imposing acoustic sum rule on the dynamical matrix
     Read dielectric tensor and effective charges

        q(    1 ) = (   0.0000000   0.0000000   0.0000000 )


     ===================================================================
     irreducible q point #    2
     ===================================================================

     Symmetries of small group of q:  6

     Number of q in the star =    4
     List of q in the star:
          1  -0.333333333   0.333333333  -0.333333333
          2   0.333333333   0.333333333   0.333333333
          3   0.333333333  -0.333333333  -0.333333333
          4  -0.333333333  -0.333333333   0.333333333
     In addition there is the -q list: 
          1   0.333333333  -0.333333333   0.333333333
          2  -0.333333333  -0.333333333  -0.333333333
          3  -0.333333333   0.333333333   0.333333333
          4   0.333333333   0.333333333  -0.333333333

        q(    2 ) = (  -0.3333333   0.3333333  -0.3333333 )

        q(    3 ) = (   0.3333333  -0.3333333   0.3333333 )
        q(    4 ) = (   0.3333333   0.3333333   0.3333333 )
        q(    5 ) = (  -0.3333333  -0.3333333  -0.3333333 )
        q(    6 ) = (   0.3333333  -0.3333333  -0.3333333 )
        q(    7 ) = (  -0.3333333   0.3333333   0.3333333 )
        q(    8 ) = (  -0.3333333  -0.3333333   0.3333333 )
        q(    9 ) = (   0.3333333   0.3333333  -0.3333333 )


     ===================================================================
     irreducible q point #    3
     ===================================================================

     Symmetries of small group of q:  4

     Number of q in the star =    6
     List of q in the star:
          1   0.000000000   0.666666667   0.000000000
          2   0.000000000   0.000000000  -0.666666667
          3  -0.666666667   0.000000000   0.000000000
          4   0.666666667   0.000000000   0.000000000
          5   0.000000000  -0.666666667   0.000000000
          6   0.000000000   0.000000000   0.666666667

        q(   10 ) = (   0.0000000   0.6666667   0.0000000 )
        q(   11 ) = (   0.0000000   0.0000000  -0.6666667 )
        q(   12 ) = (  -0.6666667   0.0000000   0.0000000 )
        q(   13 ) = (   0.6666667   0.0000000   0.0000000 )
        q(   14 ) = (   0.0000000  -0.6666667   0.0000000 )
        q(   15 ) = (   0.0000000   0.0000000   0.6666667 )


     ===================================================================
     irreducible q point #    4
     ===================================================================

     Symmetries of small group of q:  2

     Number of q in the star =   12
     List of q in the star:
          1   0.666666667   0.000000000   0.666666667
          2  -0.666666667   0.000000000  -0.666666667
          3   0.666666667  -0.666666667   0.000000000
          4   0.000000000  -0.666666667   0.666666667
          5   0.000000000  -0.666666667  -0.666666667
          6  -0.666666667   0.000000000   0.666666667
          7   0.666666667   0.666666667   0.000000000
          8  -0.666666667  -0.666666667   0.000000000
          9  -0.666666667   0.666666667   0.000000000
         10   0.666666667   0.000000000  -0.666666667
         11   0.000000000   0.666666667   0.666666667
         12   0.000000000   0.666666667  -0.666666667

        q(   16 ) = (   0.6666667   0.0000000   0.6666667 )
        q(   17 ) = (  -0.6666667   0.0000000  -0.6666667 )
        q(   18 ) = (   0.6666667  -0.6666667   0.0000000 )
        q(   19 ) = (   0.0000000  -0.6666667   0.6666667 )
        q(   20 ) = (  -0.0000000  -0.6666667  -0.6666667 )
        q(   21 ) = (  -0.6666667  -0.0000000   0.6666667 )
        q(   22 ) = (   0.6666667   0.6666667   0.0000000 )
        q(   23 ) = (  -0.6666667  -0.6666667   0.0000000 )
        q(   24 ) = (  -0.6666667   0.6666667   0.0000000 )
        q(   25 ) = (   0.6666667   0.0000000  -0.6666667 )
        q(   26 ) = (   0.0000000   0.6666667   0.6666667 )
        q(   27 ) = (   0.0000000   0.6666667  -0.6666667 )

     Computes the analytic long-range interaction for polar materials [lpolar]
      
     Use zone-centred Wigner-Seitz cells 
     Number of WS vectors for electrons      279
     Number of WS vectors for phonons       43
     Number of WS vectors for electron-phonon       43
     Maximum number of cores for efficient parallelization      258
     Results may improve by using use_ws == .TRUE. 

     Velocity matrix elements calculated
 
 
     Bloch2wane:          1 /         27
     Bloch2wane:          2 /         27
     Bloch2wane:          3 /         27
     Bloch2wane:          4 /         27
     Bloch2wane:          5 /         27
     Bloch2wane:          6 /         27
     Bloch2wane:          7 /         27
     Bloch2wane:          8 /         27
     Bloch2wane:          9 /         27
     Bloch2wane:         10 /         27
     Bloch2wane:         11 /         27
     Bloch2wane:         12 /         27
     Bloch2wane:         13 /         27
     Bloch2wane:         14 /         27
     Bloch2wane:         15 /         27
     Bloch2wane:         16 /         27
     Bloch2wane:         17 /         27
     Bloch2wane:         18 /         27
     Bloch2wane:         19 /         27
     Bloch2wane:         20 /         27
     Bloch2wane:         21 /         27
     Bloch2wane:         22 /         27
     Bloch2wane:         23 /         27
     Bloch2wane:         24 /         27
     Bloch2wane:         25 /         27
     Bloch2wane:         26 /         27
     Bloch2wane:         27 /         27
 
     Bloch2wanp:          1 /         11
     Bloch2wanp:          2 /         11
     Bloch2wanp:          3 /         11
     Bloch2wanp:          4 /         11
     Bloch2wanp:          5 /         11
     Bloch2wanp:          6 /         11
     Bloch2wanp:          7 /         11
     Bloch2wanp:          8 /         11
     Bloch2wanp:          9 /         11
     Bloch2wanp:         10 /         11
     Bloch2wanp:         11 /         11

     Writing Hamiltonian, Dynamical matrix and EP vertex in Wann rep to file

System file does not exist
     ===================================================================
     Memory usage:  VmHWM =         0Mb
                   VmPeak =         0Mb
     ===================================================================
     
     Using q-mesh file: path1.dat
     WARNING: q-point weigths do not add up to 1 [loadqmesh_serial]
     Size of q point mesh for interpolation:         41
     Using uniform k-mesh:    1   1   1
     Size of k point mesh for interpolation:          2
     Max number of k points per pool:                2

     Fermi energy coarse grid =   9.359431 eV

     Fermi energy is calculated from the fine k-mesh: Ef =   9.380477 eV

     ===================================================================

              ibndmin =     1  ebndmin =    -6.107 eV
              ibndmax =     4  ebndmax =     9.359 eV


     Number of ep-matrix elements per pool :           96 ~=    0.75 Kb (@ 8 bytes/ DP)
     We only need to compute       41 q-points
      
      Electron-phonon vertex |g| (meV)

     iq =       1 coord.:   -0.5000000   0.0000000  -0.5000000
     ik =       1 coord.:    0.0000000   0.0000000   0.0000000
      ibnd     jbnd     imode   enk[eV]    enk+q[eV]  omega(q)[meV]   |g|[meV]
     ------------------------------------------------------------------------------
        1        1        1     -6.1066     -1.0625       44.2862561472    0.2011057650E-05
        1        1        2     -6.1066     -1.0625       44.8121001120    0.5864784280E+00
        1        1        3     -6.1066     -1.0625       76.1919626197    0.2755026905E+03
        1        1        4     -6.1066     -1.0625       91.5479961236    0.3281393711E+01
        1        1        5     -6.1066     -1.0625       91.8083065343    0.9645377480E-06
        1        1        6     -6.1066     -1.0625       99.9295623563    0.2068748893E+02
        1        2        1     -6.1066      1.5029       44.2862561472    0.2577909585E-05
        1        2        2     -6.1066      1.5029       44.8121001120    0.8045473525E+01
        1        2        3     -6.1066      1.5029       76.1919626197    0.8880037228E+01
        1        2        4     -6.1066      1.5029       91.5479961236    0.6352702099E+01
        1        2        5     -6.1066      1.5029       91.8083065343    0.2400181225E-05
        1        2        6     -6.1066      1.5029       99.9295623563    0.2158132300E+03
        1        3        1     -6.1066      6.1085       44.2862561472    0.3719367584E+02
        1        3        2     -6.1066      6.1085       44.8121001120    0.4703786933E+02
        1        3        3     -6.1066      6.1085       76.1919626197    0.1024538454E+01
        1        3        4     -6.1066      6.1085       91.5479961236    0.2098370802E+03
        1        3        5     -6.1066      6.1085       91.8083065343    0.2233967244E+03
        1        3        6     -6.1066      6.1085       99.9295623563    0.3821862374E+01
        1        4        1     -6.1066      6.1085       44.2862561472    0.3719367584E+02
        1        4        2     -6.1066      6.1085       44.8121001120    0.4703786933E+02
        1        4        3     -6.1066      6.1085       76.1919626197    0.1024538454E+01
        1        4        4     -6.1066      6.1085       91.5479961236    0.2098370802E+03
        1        4        5     -6.1066      6.1085       91.8083065343    0.2233967244E+03
        1        4        6     -6.1066      6.1085       99.9295623563    0.3821862374E+01
        2        1        1      9.3594     -1.0625       44.2862561472    0.4611921106E+02
        2        1        2      9.3594     -1.0625       44.8121001120    0.6114221031E+02
        2        1        3      9.3594     -1.0625       76.1919626197    0.2953002706E+01
        2        1        4      9.3594     -1.0625       91.5479961236    0.1717152750E+03
        2        1        5      9.3594     -1.0625       91.8083065343    0.1950949859E+03
        2        1        6      9.3594     -1.0625       99.9295623563    0.6882590380E+02
        2        2        1      9.3594      1.5029       44.2862561472    0.2833364339E+02
        2        2        2      9.3594      1.5029       44.8121001120    0.2744103671E+02
        2        2        3      9.3594      1.5029       76.1919626197    0.5505281262E+02
        2        2        4      9.3594      1.5029       91.5479961236    0.9381654385E+02
        2        2        5      9.3594      1.5029       91.8083065343    0.9296875685E+02
        2        2        6      9.3594      1.5029       99.9295623563    0.1780017504E+02
        2        3        1      9.3594      6.1085       44.2862561472    0.7239543955E+01
        2        3        2      9.3594      6.1085       44.8121001120    0.9689582452E+01
        2        3        3      9.3594      6.1085       76.1919626197    0.1892523215E+03
        2        3        4      9.3594      6.1085       91.5479961236    0.5281625434E+02
        2        3        5      9.3594      6.1085       91.8083065343    0.5027607407E+02
        2        3        6      9.3594      6.1085       99.9295623563    0.6551843630E+02
        2        4        1      9.3594      6.1085       44.2862561472    0.7239543955E+01
        2        4        2      9.3594      6.1085       44.8121001120    0.9689582452E+01
        2        4        3      9.3594      6.1085       76.1919626197    0.1892523215E+03
        2        4        4      9.3594      6.1085       91.5479961236    0.5281625434E+02
        2        4        5      9.3594      6.1085       91.8083065343    0.5027607407E+02
        2        4        6      9.3594      6.1085       99.9295623563    0.6551843630E+02
        3        1        1      9.3594     -1.0625       44.2862561472    0.4611921106E+02
        3        1        2      9.3594     -1.0625       44.8121001120    0.6114221031E+02
        3        1        3      9.3594     -1.0625       76.1919626197    0.2953002706E+01
        3        1        4      9.3594     -1.0625       91.5479961236    0.1717152750E+03
        3        1        5      9.3594     -1.0625       91.8083065343    0.1950949859E+03
        3        1        6      9.3594     -1.0625       99.9295623563    0.6882590380E+02
        3        2        1      9.3594      1.5029       44.2862561472    0.2833364339E+02
        3        2        2      9.3594      1.5029       44.8121001120    0.2744103671E+02
        3        2        3      9.3594      1.5029       76.1919626197    0.5505281262E+02
        3        2        4      9.3594      1.5029       91.5479961236    0.9381654385E+02
        3        2        5      9.3594      1.5029       91.8083065343    0.9296875685E+02
        3        2        6      9.3594      1.5029       99.9295623563    0.1780017504E+02
        3        3        1      9.3594      6.1085       44.2862561472    0.7239543955E+01
        3        3        2      9.3594      6.1085       44.8121001120    0.9689582452E+01
        3        3        3      9.3594      6.1085       76.1919626197    0.1892523215E+03
        3        3        4      9.3594      6.1085       91.5479961236    0.5281625434E+02
        3        3        5      9.3594      6.1085       91.8083065343    0.5027607407E+02
        3        3        6      9.3594      6.1085       99.9295623563    0.6551843630E+02
        3        4        1      9.3594      6.1085       44.2862561472    0.7239543955E+01
        3        4        2      9.3594      6.1085       44.8121001120    0.9689582452E+01
        3        4        3      9.3594      6.1085       76.1919626197    0.1892523215E+03
        3        4        4      9.3594      6.1085       91.5479961236    0.5281625434E+02
        3        4        5      9.3594      6.1085       91.8083065343    0.5027607407E+02
        3        4        6      9.3594      6.1085       99.9295623563    0.6551843630E+02
        4        1        1      9.3594     -1.0625       44.2862561472    0.4611921106E+02
        4        1        2      9.3594     -1.0625       44.8121001120    0.6114221031E+02
        4        1        3      9.3594     -1.0625       76.1919626197    0.2953002706E+01
        4        1        4      9.3594     -1.0625       91.5479961236    0.1717152750E+03
        4        1        5      9.3594     -1.0625       91.8083065343    0.1950949859E+03
        4        1        6      9.3594     -1.0625       99.9295623563    0.6882590380E+02
        4        2        1      9.3594      1.5029       44.2862561472    0.2833364339E+02
        4        2        2      9.3594      1.5029       44.8121001120    0.2744103671E+02
        4        2        3      9.3594      1.5029       76.1919626197    0.5505281262E+02
        4        2        4      9.3594      1.5029       91.5479961236    0.9381654385E+02
        4        2        5      9.3594      1.5029       91.8083065343    0.9296875685E+02
        4        2        6      9.3594      1.5029       99.9295623563    0.1780017504E+02
        4        3        1      9.3594      6.1085       44.2862561472    0.7239543955E+01
        4        3        2      9.3594      6.1085       44.8121001120    0.9689582452E+01
        4        3        3      9.3594      6.1085       76.1919626197    0.1892523215E+03
        4        3        4      9.3594      6.1085       91.5479961236    0.5281625434E+02
        4        3        5      9.3594      6.1085       91.8083065343    0.5027607407E+02
        4        3        6      9.3594      6.1085       99.9295623563    0.6551843630E+02
        4        4        1      9.3594      6.1085       44.2862561472    0.7239543955E+01
        4        4        2      9.3594      6.1085       44.8121001120    0.9689582452E+01
        4        4        3      9.3594      6.1085       76.1919626197    0.1892523215E+03
        4        4        4      9.3594      6.1085       91.5479961236    0.5281625434E+02
        4        4        5      9.3594      6.1085       91.8083065343    0.5027607407E+02
        4        4        6      9.3594      6.1085       99.9295623563    0.6551843630E+02
     ------------------------------------------------------------------------------

      Electron-phonon vertex |g| (meV)

     iq =       2 coord.:   -0.4750000   0.0000000  -0.4750000
     ik =       1 coord.:    0.0000000   0.0000000   0.0000000
      ibnd     jbnd     imode   enk[eV]    enk+q[eV]  omega(q)[meV]   |g|[meV]
     ------------------------------------------------------------------------------
        1        1        1     -6.1066     -1.1645       44.1910304561    0.1749762240E-05
        1        1        2     -6.1066     -1.1645       44.6982395904    0.1651581557E+01
        1        1        3     -6.1066     -1.1645       75.7688680001    0.2739688056E+03
        1        1        4     -6.1066     -1.1645       91.5655335885    0.3678791972E+01
        1        1        5     -6.1066     -1.1645       91.8158931259    0.1582147906E-05
        1        1        6     -6.1066     -1.1645      100.1547163639    0.2004948407E+02
        1        2        1     -6.1066      1.6166       44.1910304561    0.1918211923E-05
        1        2        2     -6.1066      1.6166       44.6982395904    0.7748434890E+01
        1        2        3     -6.1066      1.6166       75.7688680001    0.1714382959E+02
        1        2        4     -6.1066      1.6166       91.5655335885    0.6066825076E+01
        1        2        5     -6.1066      1.6166       91.8158931259    0.2785111048E-05
        1        2        6     -6.1066      1.6166      100.1547163639    0.2183711769E+03
        1        3        1     -6.1066      6.1224       44.1910304561    0.3942974577E+02
        1        3        2     -6.1066      6.1224       44.6982395904    0.4824179554E+02
        1        3        3     -6.1066      6.1224       75.7688680001    0.8648517332E+00
        1        3        4     -6.1066      6.1224       91.5655335885    0.2098797508E+03
        1        3        5     -6.1066      6.1224       91.8158931259    0.2229428204E+03
        1        3        6     -6.1066      6.1224      100.1547163639    0.3625367615E+01
        1        4        1     -6.1066      6.1224       44.1910304561    0.3942974577E+02
        1        4        2     -6.1066      6.1224       44.6982395904    0.4824179554E+02
        1        4        3     -6.1066      6.1224       75.7688680001    0.8648517332E+00
        1        4        4     -6.1066      6.1224       91.5655335885    0.2098797508E+03
        1        4        5     -6.1066      6.1224       91.8158931259    0.2229428204E+03
        1        4        6     -6.1066      6.1224      100.1547163639    0.3625367615E+01
        2        1        1      9.3594     -1.1645       44.1910304561    0.4763766392E+02
        2        1        2      9.3594     -1.1645       44.6982395904    0.6043137666E+02
        2        1        3      9.3594     -1.1645       75.7688680001    0.2581308967E+01
        2        1        4      9.3594     -1.1645       91.5655335885    0.1703839924E+03
        2        1        5      9.3594     -1.1645       91.8158931259    0.1918396492E+03
        2        1        6      9.3594     -1.1645      100.1547163639    0.7188348596E+02
        2        2        1      9.3594      1.6166       44.1910304561    0.2777891891E+02
        2        2        2      9.3594      1.6166       44.6982395904    0.2931878715E+02
        2        2        3      9.3594      1.6166       75.7688680001    0.5382282228E+02
        2        2        4      9.3594      1.6166       91.5655335885    0.9702781708E+02
        2        2        5      9.3594      1.6166       91.8158931259    0.9794783841E+02
        2        2        6      9.3594      1.6166      100.1547163639    0.1801400732E+02
        2        3        1      9.3594      6.1224       44.1910304561    0.7518696773E+01
        2        3        2      9.3594      6.1224       44.6982395904    0.9703006687E+01
        2        3        3      9.3594      6.1224       75.7688680001    0.1864648662E+03
        2        3        4      9.3594      6.1224       91.5655335885    0.5343043632E+02
        2        3        5      9.3594      6.1224       91.8158931259    0.5096504419E+02
        2        3        6      9.3594      6.1224      100.1547163639    0.7453949420E+02
        2        4        1      9.3594      6.1224       44.1910304561    0.7518696773E+01
        2        4        2      9.3594      6.1224       44.6982395904    0.9703006687E+01
        2        4        3      9.3594      6.1224       75.7688680001    0.1864648662E+03
        2        4        4      9.3594      6.1224       91.5655335885    0.5343043632E+02
        2        4        5      9.3594      6.1224       91.8158931259    0.5096504419E+02
        2        4        6      9.3594      6.1224      100.1547163639    0.7453949420E+02
        3        1        1      9.3594     -1.1645       44.1910304561    0.4763766392E+02
        3        1        2      9.3594     -1.1645       44.6982395904    0.6043137666E+02
        3        1        3      9.3594     -1.1645       75.7688680001    0.2581308967E+01
        3        1        4      9.3594     -1.1645       91.5655335885    0.1703839924E+03
        3        1        5      9.3594     -1.1645       91.8158931259    0.1918396492E+03
        3        1        6      9.3594     -1.1645      100.1547163639    0.7188348596E+02
        3        2        1      9.3594      1.6166       44.1910304561    0.2777891891E+02
        3        2        2      9.3594      1.6166       44.6982395904    0.2931878715E+02
        3        2        3      9.3594      1.6166       75.7688680001    0.5382282228E+02
        3        2        4      9.3594      1.6166       91.5655335885    0.9702781708E+02
        3        2        5      9.3594      1.6166       91.8158931259    0.9794783841E+02
        3        2        6      9.3594      1.6166      100.1547163639    0.1801400732E+02
        3        3        1      9.3594      6.1224       44.1910304561    0.7518696773E+01
        3        3        2      9.3594      6.1224       44.6982395904    0.9703006687E+01
        3        3        3      9.3594      6.1224       75.7688680001    0.1864648662E+03
        3        3        4      9.3594      6.1224       91.5655335885    0.5343043632E+02
        3        3        5      9.3594      6.1224       91.8158931259    0.5096504419E+02
        3        3        6      9.3594      6.1224      100.1547163639    0.7453949420E+02
        3        4        1      9.3594      6.1224       44.1910304561    0.7518696773E+01
        3        4        2      9.3594      6.1224       44.6982395904    0.9703006687E+01
        3        4        3      9.3594      6.1224       75.7688680001    0.1864648662E+03
        3        4        4      9.3594      6.1224       91.5655335885    0.5343043632E+02
        3        4        5      9.3594      6.1224       91.8158931259    0.5096504419E+02
        3        4        6      9.3594      6.1224      100.1547163639    0.7453949420E+02
        4        1        1      9.3594     -1.1645       44.1910304561    0.4763766392E+02
        4        1        2      9.3594     -1.1645       44.6982395904    0.6043137666E+02
        4        1        3      9.3594     -1.1645       75.7688680001    0.2581308967E+01
        4        1        4      9.3594     -1.1645       91.5655335885    0.1703839924E+03
        4        1        5      9.3594     -1.1645       91.8158931259    0.1918396492E+03
        4        1        6      9.3594     -1.1645      100.1547163639    0.7188348596E+02
        4        2        1      9.3594      1.6166       44.1910304561    0.2777891891E+02
        4        2        2      9.3594      1.6166       44.6982395904    0.2931878715E+02
        4        2        3      9.3594      1.6166       75.7688680001    0.5382282228E+02
        4        2        4      9.3594      1.6166       91.5655335885    0.9702781708E+02
        4        2        5      9.3594      1.6166       91.8158931259    0.9794783841E+02
        4        2        6      9.3594      1.6166      100.1547163639    0.1801400732E+02
        4        3        1      9.3594      6.1224       44.1910304561    0.7518696773E+01
        4        3        2      9.3594      6.1224       44.6982395904    0.9703006687E+01
        4        3        3      9.3594      6.1224       75.7688680001    0.1864648662E+03
        4        3        4      9.3594      6.1224       91.5655335885    0.5343043632E+02
        4        3        5      9.3594      6.1224       91.8158931259    0.5096504419E+02
        4        3        6      9.3594      6.1224      100.1547163639    0.7453949420E+02
        4        4        1      9.3594      6.1224       44.1910304561    0.7518696773E+01
        4        4        2      9.3594      6.1224       44.6982395904    0.9703006687E+01
        4        4        3      9.3594      6.1224       75.7688680001    0.1864648662E+03
        4        4        4      9.3594      6.1224       91.5655335885    0.5343043632E+02
        4        4        5      9.3594      6.1224       91.8158931259    0.5096504419E+02
        4        4        6      9.3594      6.1224      100.1547163639    0.7453949420E+02
     ------------------------------------------------------------------------------

      Electron-phonon vertex |g| (meV)

     iq =       3 coord.:   -0.4500000   0.0000000  -0.4500000
     ik =       1 coord.:    0.0000000   0.0000000   0.0000000
      ibnd     jbnd     imode   enk[eV]    enk+q[eV]  omega(q)[meV]   |g|[meV]
     ------------------------------------------------------------------------------
        1        1        1     -6.1066     -1.4307       43.9013326720    0.1669730956E-05
        1        1        2     -6.1066     -1.4307       44.3549791552    0.2591085276E+01
        1        1        3     -6.1066     -1.4307       74.5500265644    0.2709502784E+03
        1        1        4     -6.1066     -1.4307       91.6188430112    0.4148472788E+01
        1        1        5     -6.1066     -1.4307       91.8408120051    0.2100987603E-05
        1        1        6     -6.1066     -1.4307      100.7835530009    0.2314980185E+02
        1        2        1     -6.1066      1.9175       43.9013326720    0.1040119567E-05
        1        2        2     -6.1066      1.9175       44.3549791552    0.7009807717E+01
        1        2        3     -6.1066      1.9175       74.5500265644    0.1960007276E+02
        1        2        4     -6.1066      1.9175       91.6188430112    0.5404954240E+01
        1        2        5     -6.1066      1.9175       91.8408120051    0.2574504939E-05
        1        2        6     -6.1066      1.9175      100.7835530009    0.2245408923E+03
        1        3        1     -6.1066      6.1639       43.9013326720    0.4528792935E+02
        1        3        2     -6.1066      6.1639       44.3549791552    0.5166109818E+02
        1        3        3     -6.1066      6.1639       74.5500265644    0.4700674558E+00
        1        3        4     -6.1066      6.1639       91.6188430112    0.2099924137E+03
        1        3        5     -6.1066      6.1639       91.8408120051    0.2216337136E+03
        1        3        6     -6.1066      6.1639      100.7835530009    0.3123856913E+01
        1        4        1     -6.1066      6.1639       43.9013326720    0.4528792935E+02
        1        4        2     -6.1066      6.1639       44.3549791552    0.5166109818E+02
        1        4        3     -6.1066      6.1639       74.5500265644    0.4700674558E+00
        1        4        4     -6.1066      6.1639       91.6188430112    0.2099924137E+03
        1        4        5     -6.1066      6.1639       91.8408120051    0.2216337136E+03
        1        4        6     -6.1066      6.1639      100.7835530009    0.3123856913E+01
        2        1        1      9.3594     -1.4307       43.9013326720    0.5101917327E+02
        2        1        2      9.3594     -1.4307       44.3549791552    0.5915960134E+02
        2        1        3      9.3594     -1.4307       74.5500265644    0.1612347310E+01
        2        1        4      9.3594     -1.4307       91.6188430112    0.1680454732E+03
        2        1        5      9.3594     -1.4307       91.8408120051    0.1849178251E+03
        2        1        6      9.3594     -1.4307      100.7835530009    0.7930491801E+02
        2        2        1      9.3594      1.9175       43.9013326720    0.2732352814E+02
        2        2        2      9.3594      1.9175       44.3549791552    0.3273851561E+02
        2        2        3      9.3594      1.9175       74.5500265644    0.5087941457E+02
        2        2        4      9.3594      1.9175       91.6188430112    0.1032745398E+03
        2        2        5      9.3594      1.9175       91.8408120051    0.1066203300E+03
        2        2        6      9.3594      1.9175      100.7835530009    0.1989589431E+02
        2        3        1      9.3594      6.1639       43.9013326720    0.8269494270E+01
        2        3        2      9.3594      6.1639       44.3549791552    0.9746807779E+01
        2        3        3      9.3594      6.1639       74.5500265644    0.1790271070E+03
        2        3        4      9.3594      6.1639       91.6188430112    0.5524822357E+02
        2        3        5      9.3594      6.1639       91.8408120051    0.5299616805E+02
        2        3        6      9.3594      6.1639      100.7835530009    0.9428188355E+02
        2        4        1      9.3594      6.1639       43.9013326720    0.8269494270E+01
        2        4        2      9.3594      6.1639       44.3549791552    0.9746807779E+01
        2        4        3      9.3594      6.1639       74.5500265644    0.1790271070E+03
        2        4        4      9.3594      6.1639       91.6188430112    0.5524822357E+02
        2        4        5      9.3594      6.1639       91.8408120051    0.5299616805E+02
        2        4        6      9.3594      6.1639      100.7835530009    0.9428188355E+02
        3        1        1      9.3594     -1.4307       43.9013326720    0.5101917327E+02
        3        1        2      9.3594     -1.4307       44.3549791552    0.5915960134E+02
        3        1        3      9.3594     -1.4307       74.5500265644    0.1612347310E+01
        3        1        4      9.3594     -1.4307       91.6188430112    0.1680454732E+03
        3        1        5      9.3594     -1.4307       91.8408120051    0.1849178251E+03
        3        1        6      9.3594     -1.4307      100.7835530009    0.7930491801E+02
        3        2        1      9.3594      1.9175       43.9013326720    0.2732352814E+02
        3        2        2      9.3594      1.9175       44.3549791552    0.3273851561E+02
        3        2        3      9.3594      1.9175       74.5500265644    0.5087941457E+02
        3        2        4      9.3594      1.9175       91.6188430112    0.1032745398E+03
        3        2        5      9.3594      1.9175       91.8408120051    0.1066203300E+03
        3        2        6      9.3594      1.9175      100.7835530009    0.1989589431E+02
        3        3        1      9.3594      6.1639       43.9013326720    0.8269494270E+01
        3        3        2      9.3594      6.1639       44.3549791552    0.9746807779E+01
        3        3        3      9.3594      6.1639       74.5500265644    0.1790271070E+03
        3        3        4      9.3594      6.1639       91.6188430112    0.5524822357E+02
        3        3        5      9.3594      6.1639       91.8408120051    0.5299616805E+02
        3        3        6      9.3594      6.1639      100.7835530009    0.9428188355E+02
        3        4        1      9.3594      6.1639       43.9013326720    0.8269494270E+01
        3        4        2      9.3594      6.1639       44.3549791552    0.9746807779E+01
        3        4        3      9.3594      6.1639       74.5500265644    0.1790271070E+03
        3        4        4      9.3594      6.1639       91.6188430112    0.5524822357E+02
        3        4        5      9.3594      6.1639       91.8408120051    0.5299616805E+02
        3        4        6      9.3594      6.1639      100.7835530009    0.9428188355E+02
        4        1        1      9.3594     -1.4307       43.9013326720    0.5101917327E+02
        4        1        2      9.3594     -1.4307       44.3549791552    0.5915960134E+02
        4        1        3      9.3594     -1.4307       74.5500265644    0.1612347310E+01
        4        1        4      9.3594     -1.4307       91.6188430112    0.1680454732E+03
        4        1        5      9.3594     -1.4307       91.8408120051    0.1849178251E+03
        4        1        6      9.3594     -1.4307      100.7835530009    0.7930491801E+02
        4        2        1      9.3594      1.9175       43.9013326720    0.2732352814E+02
        4        2        2      9.3594      1.9175       44.3549791552    0.3273851561E+02
        4        2        3      9.3594      1.9175       74.5500265644    0.5087941457E+02
        4        2        4      9.3594      1.9175       91.6188430112    0.1032745398E+03
        4        2        5      9.3594      1.9175       91.8408120051    0.1066203300E+03
        4        2        6      9.3594      1.9175      100.7835530009    0.1989589431E+02
        4        3        1      9.3594      6.1639       43.9013326720    0.8269494270E+01
        4        3        2      9.3594      6.1639       44.3549791552    0.9746807779E+01
        4        3        3      9.3594      6.1639       74.5500265644    0.1790271070E+03
        4        3        4      9.3594      6.1639       91.6188430112    0.5524822357E+02
        4        3        5      9.3594      6.1639       91.8408120051    0.5299616805E+02
        4        3        6      9.3594      6.1639      100.7835530009    0.9428188355E+02
        4        4        1      9.3594      6.1639       43.9013326720    0.8269494270E+01
        4        4        2      9.3594      6.1639       44.3549791552    0.9746807779E+01
        4        4        3      9.3594      6.1639       74.5500265644    0.1790271070E+03
        4        4        4      9.3594      6.1639       91.6188430112    0.5524822357E+02
        4        4        5      9.3594      6.1639       91.8408120051    0.5299616805E+02
        4        4        6      9.3594      6.1639      100.7835530009    0.9428188355E+02
     ------------------------------------------------------------------------------

      Electron-phonon vertex |g| (meV)

     iq =       4 coord.:   -0.4250000   0.0000000  -0.4250000
     ik =       1 coord.:    0.0000000   0.0000000   0.0000000
      ibnd     jbnd     imode   enk[eV]    enk+q[eV]  omega(q)[meV]   |g|[meV]
     ------------------------------------------------------------------------------
        1        1        1     -6.1066     -1.7917       43.4058746735    0.1612756660E-05
        1        1        2     -6.1066     -1.7917       43.7776726803    0.2915898491E+01
        1        1        3     -6.1066     -1.7917       72.6562812572    0.2680363136E+03
        1        1        4     -6.1066     -1.7917       91.7097979232    0.4065757314E+01
        1        1        5     -6.1066     -1.7917       91.8890303924    0.2304798468E-05
        1        1        6     -6.1066     -1.7917      101.7063477173    0.3473301669E+02
        1        2        1     -6.1066      2.3362       43.4058746735    0.3561960504E-06
        1        2        2     -6.1066      2.3362       43.7776726803    0.6006855833E+01
        1        2        3     -6.1066      2.3362       72.6562812572    0.1187578686E+02
        1        2        4     -6.1066      2.3362       91.7097979232    0.4575215071E+01
        1        2        5     -6.1066      2.3362       91.8890303924    0.2046963299E-05
        1        2        6     -6.1066      2.3362      101.7063477173    0.2314334125E+03
        1        3        1     -6.1066      6.2324       43.4058746735    0.5313506686E+02
        1        3        2     -6.1066      6.2324       43.7776726803    0.5683411595E+02
        1        3        3     -6.1066      6.2324       72.6562812572    0.1499151257E+00
        1        3        4     -6.1066      6.2324       91.7097979232    0.2101350277E+03
        1        3        5     -6.1066      6.2324       91.8890303924    0.2196189973E+03
        1        3        6     -6.1066      6.2324      101.7063477173    0.2487212665E+01
        1        4        1     -6.1066      6.2324       43.4058746735    0.5313506686E+02
        1        4        2     -6.1066      6.2324       43.7776726803    0.5683411595E+02
        1        4        3     -6.1066      6.2324       72.6562812572    0.1499151257E+00
        1        4        4     -6.1066      6.2324       91.7097979232    0.2101350277E+03
        1        4        5     -6.1066      6.2324       91.8890303924    0.2196189973E+03
        1        4        6     -6.1066      6.2324      101.7063477173    0.2487212665E+01
        2        1        1      9.3594     -1.7917       43.4058746735    0.5454221009E+02
        2        1        2      9.3594     -1.7917       43.7776726803    0.5840630489E+02
        2        1        3      9.3594     -1.7917       72.6562812572    0.7550192913E+01
        2        1        4      9.3594     -1.7917       91.7097979232    0.1665315176E+03
        2        1        5      9.3594     -1.7917       91.8890303924    0.1780180488E+03
        2        1        6      9.3594     -1.7917      101.7063477173    0.8826241648E+02
        2        2        1      9.3594      2.3362       43.4058746735    0.2852819789E+02
        2        2        2      9.3594      2.3362       43.7776726803    0.3549774311E+02
        2        2        3      9.3594      2.3362       72.6562812572    0.4740322063E+02
        2        2        4      9.3594      2.3362       91.7097979232    0.1090758316E+03
        2        2        5      9.3594      2.3362       91.8890303924    0.1129989176E+03
        2        2        6      9.3594      2.3362      101.7063477173    0.2392481938E+02
        2        3        1      9.3594      6.2324       43.4058746735    0.9295543410E+01
        2        3        2      9.3594      6.2324       43.7776726803    0.9845380380E+01
        2        3        3      9.3594      6.2324       72.6562812572    0.1689506694E+03
        2        3        4      9.3594      6.2324       91.7097979232    0.5818574251E+02
        2        3        5      9.3594      6.2324       91.8890303924    0.5626240794E+02
        2        3        6      9.3594      6.2324      101.7063477173    0.1153786521E+03
        2        4        1      9.3594      6.2324       43.4058746735    0.9295543410E+01
        2        4        2      9.3594      6.2324       43.7776726803    0.9845380380E+01
        2        4        3      9.3594      6.2324       72.6562812572    0.1689506694E+03
        2        4        4      9.3594      6.2324       91.7097979232    0.5818574251E+02
        2        4        5      9.3594      6.2324       91.8890303924    0.5626240794E+02
        2        4        6      9.3594      6.2324      101.7063477173    0.1153786521E+03
        3        1        1      9.3594     -1.7917       43.4058746735    0.5454221009E+02
        3        1        2      9.3594     -1.7917       43.7776726803    0.5840630489E+02
        3        1        3      9.3594     -1.7917       72.6562812572    0.7550192913E+01
        3        1        4      9.3594     -1.7917       91.7097979232    0.1665315176E+03
        3        1        5      9.3594     -1.7917       91.8890303924    0.1780180488E+03
        3        1        6      9.3594     -1.7917      101.7063477173    0.8826241648E+02
        3        2        1      9.3594      2.3362       43.4058746735    0.2852819789E+02
        3        2        2      9.3594      2.3362       43.7776726803    0.3549774311E+02
        3        2        3      9.3594      2.3362       72.6562812572    0.4740322063E+02
        3        2        4      9.3594      2.3362       91.7097979232    0.1090758316E+03
        3        2        5      9.3594      2.3362       91.8890303924    0.1129989176E+03
        3        2        6      9.3594      2.3362      101.7063477173    0.2392481938E+02
        3        3        1      9.3594      6.2324       43.4058746735    0.9295543410E+01
        3        3        2      9.3594      6.2324       43.7776726803    0.9845380380E+01
        3        3        3      9.3594      6.2324       72.6562812572    0.1689506694E+03
        3        3        4      9.3594      6.2324       91.7097979232    0.5818574251E+02
        3        3        5      9.3594      6.2324       91.8890303924    0.5626240794E+02
        3        3        6      9.3594      6.2324      101.7063477173    0.1153786521E+03
        3        4        1      9.3594      6.2324       43.4058746735    0.9295543410E+01
        3        4        2      9.3594      6.2324       43.7776726803    0.9845380380E+01
        3        4        3      9.3594      6.2324       72.6562812572    0.1689506694E+03
        3        4        4      9.3594      6.2324       91.7097979232    0.5818574251E+02
        3        4        5      9.3594      6.2324       91.8890303924    0.5626240794E+02
        3        4        6      9.3594      6.2324      101.7063477173    0.1153786521E+03
        4        1        1      9.3594     -1.7917       43.4058746735    0.5454221009E+02
        4        1        2      9.3594     -1.7917       43.7776726803    0.5840630489E+02
        4        1        3      9.3594     -1.7917       72.6562812572    0.7550192913E+01
        4        1        4      9.3594     -1.7917       91.7097979232    0.1665315176E+03
        4        1        5      9.3594     -1.7917       91.8890303924    0.1780180488E+03
        4        1        6      9.3594     -1.7917      101.7063477173    0.8826241648E+02
        4        2        1      9.3594      2.3362       43.4058746735    0.2852819789E+02
        4        2        2      9.3594      2.3362       43.7776726803    0.3549774311E+02
        4        2        3      9.3594      2.3362       72.6562812572    0.4740322063E+02
        4        2        4      9.3594      2.3362       91.7097979232    0.1090758316E+03
        4        2        5      9.3594      2.3362       91.8890303924    0.1129989176E+03
        4        2        6      9.3594      2.3362      101.7063477173    0.2392481938E+02
        4        3        1      9.3594      6.2324       43.4058746735    0.9295543410E+01
        4        3        2      9.3594      6.2324       43.7776726803    0.9845380380E+01
        4        3        3      9.3594      6.2324       72.6562812572    0.1689506694E+03
        4        3        4      9.3594      6.2324       91.7097979232    0.5818574251E+02
        4        3        5      9.3594      6.2324       91.8890303924    0.5626240794E+02
        4        3        6      9.3594      6.2324      101.7063477173    0.1153786521E+03
        4        4        1      9.3594      6.2324       43.4058746735    0.9295543410E+01
        4        4        2      9.3594      6.2324       43.7776726803    0.9845380380E+01
        4        4        3      9.3594      6.2324       72.6562812572    0.1689506694E+03
        4        4        4      9.3594      6.2324       91.7097979232    0.5818574251E+02
        4        4        5      9.3594      6.2324       91.8890303924    0.5626240794E+02
        4        4        6      9.3594      6.2324      101.7063477173    0.1153786521E+03
     ------------------------------------------------------------------------------

      Electron-phonon vertex |g| (meV)

     iq =       5 coord.:   -0.4000000   0.0000000  -0.4000000
     ik =       1 coord.:    0.0000000   0.0000000   0.0000000
      ibnd     jbnd     imode   enk[eV]    enk+q[eV]  omega(q)[meV]   |g|[meV]
     ------------------------------------------------------------------------------
        1        1        1     -6.1066     -2.1989       42.6882646268    0.1627092251E-05
        1        1        2     -6.1066     -2.1989       42.9597854293    0.2705257525E+01
        1        1        3     -6.1066     -2.1989       70.2227912924    0.2653680601E+03
        1        1        4     -6.1066     -2.1989       91.8408041608    0.3414795225E+01
        1        1        5     -6.1066     -2.1989       91.9689026177    0.2279898638E-05
        1        1        6     -6.1066     -2.1989      102.8054344739    0.5069853780E+02
        1        2        1     -6.1066      2.8233       42.6882646268    0.6577726455E-06
        1        2        2     -6.1066      2.8233       42.9597854293    0.4764024699E+01
        1        2        3     -6.1066      2.8233       70.2227912924    0.2860479957E+01
        1        2        4     -6.1066      2.8233       91.8408041608    0.3582835893E+01
        1        2        5     -6.1066      2.8233       91.9689026177    0.1462548896E-05
        1        2        6     -6.1066      2.8233      102.8054344739    0.2370473112E+03
        1        3        1     -6.1066      6.3271       42.6882646268    0.6167520458E+02
        1        3        2     -6.1066      6.3271       42.9597854293    0.6324383765E+02
        1        3        3     -6.1066      6.3271       70.2227912924    0.4129908220E+00
        1        3        4     -6.1066      6.3271       91.8408041608    0.2102536111E+03
        1        3        5     -6.1066      6.3271       91.9689026177    0.2171207435E+03
        1        3        6     -6.1066      6.3271      102.8054344739    0.1828557301E+01
        1        4        1     -6.1066      6.3271       42.6882646268    0.6167520458E+02
        1        4        2     -6.1066      6.3271       42.9597854293    0.6324383765E+02
        1        4        3     -6.1066      6.3271       70.2227912924    0.4129908220E+00
        1        4        4     -6.1066      6.3271       91.8408041608    0.2102536111E+03
        1        4        5     -6.1066      6.3271       91.9689026177    0.2171207435E+03
        1        4        6     -6.1066      6.3271      102.8054344739    0.1828557301E+01
        2        1        1      9.3594     -2.1989       42.6882646268    0.5740802945E+02
        2        1        2      9.3594     -2.1989       42.9597854293    0.5853129449E+02
        2        1        3      9.3594     -2.1989       70.2227912924    0.1614964310E+02
        2        1        4      9.3594     -2.1989       91.8408041608    0.1660526824E+03
        2        1        5      9.3594     -2.1989       91.9689026177    0.1725709572E+03
        2        1        6      9.3594     -2.1989      102.8054344739    0.9701721686E+02
        2        2        1      9.3594      2.8233       42.6882646268    0.3129662418E+02
        2        2        2      9.3594      2.8233       42.9597854293    0.3723185109E+02
        2        2        3      9.3594      2.8233       70.2227912924    0.4417149211E+02
        2        2        4      9.3594      2.8233       91.8408041608    0.1139702970E+03
        2        2        5      9.3594      2.8233       91.9689026177    0.1168593415E+03
        2        2        6      9.3594      2.8233      102.8054344739    0.2891900343E+02
        2        3        1      9.3594      6.3271       42.6882646268    0.1038933971E+02
        2        3        2      9.3594      6.3271       42.9597854293    0.1007452553E+02
        2        3        3      9.3594      6.3271       70.2227912924    0.1580993135E+03
        2        3        4      9.3594      6.3271       91.8408041608    0.6208711207E+02
        2        3        5      9.3594      6.3271       91.9689026177    0.6058834517E+02
        2        3        6      9.3594      6.3271      102.8054344739    0.1339348604E+03
        2        4        1      9.3594      6.3271       42.6882646268    0.1038933971E+02
        2        4        2      9.3594      6.3271       42.9597854293    0.1007452553E+02
        2        4        3      9.3594      6.3271       70.2227912924    0.1580993135E+03
        2        4        4      9.3594      6.3271       91.8408041608    0.6208711207E+02
        2        4        5      9.3594      6.3271       91.9689026177    0.6058834517E+02
        2        4        6      9.3594      6.3271      102.8054344739    0.1339348604E+03
        3        1        1      9.3594     -2.1989       42.6882646268    0.5740802945E+02
        3        1        2      9.3594     -2.1989       42.9597854293    0.5853129449E+02
        3        1        3      9.3594     -2.1989       70.2227912924    0.1614964310E+02
        3        1        4      9.3594     -2.1989       91.8408041608    0.1660526824E+03
        3        1        5      9.3594     -2.1989       91.9689026177    0.1725709572E+03
        3        1        6      9.3594     -2.1989      102.8054344739    0.9701721686E+02
        3        2        1      9.3594      2.8233       42.6882646268    0.3129662418E+02
        3        2        2      9.3594      2.8233       42.9597854293    0.3723185109E+02
        3        2        3      9.3594      2.8233       70.2227912924    0.4417149211E+02
        3        2        4      9.3594      2.8233       91.8408041608    0.1139702970E+03
        3        2        5      9.3594      2.8233       91.9689026177    0.1168593415E+03
        3        2        6      9.3594      2.8233      102.8054344739    0.2891900343E+02
        3        3        1      9.3594      6.3271       42.6882646268    0.1038933971E+02
        3        3        2      9.3594      6.3271       42.9597854293    0.1007452553E+02
        3        3        3      9.3594      6.3271       70.2227912924    0.1580993135E+03
        3        3        4      9.3594      6.3271       91.8408041608    0.6208711207E+02
        3        3        5      9.3594      6.3271       91.9689026177    0.6058834517E+02
        3        3        6      9.3594      6.3271      102.8054344739    0.1339348604E+03
        3        4        1      9.3594      6.3271       42.6882646268    0.1038933971E+02
        3        4        2      9.3594      6.3271       42.9597854293    0.1007452553E+02
        3        4        3      9.3594      6.3271       70.2227912924    0.1580993135E+03
        3        4        4      9.3594      6.3271       91.8408041608    0.6208711207E+02
        3        4        5      9.3594      6.3271       91.9689026177    0.6058834517E+02
        3        4        6      9.3594      6.3271      102.8054344739    0.1339348604E+03
        4        1        1      9.3594     -2.1989       42.6882646268    0.5740802945E+02
        4        1        2      9.3594     -2.1989       42.9597854293    0.5853129449E+02
        4        1        3      9.3594     -2.1989       70.2227912924    0.1614964310E+02
        4        1        4      9.3594     -2.1989       91.8408041608    0.1660526824E+03
        4        1        5      9.3594     -2.1989       91.9689026177    0.1725709572E+03
        4        1        6      9.3594     -2.1989      102.8054344739    0.9701721686E+02
        4        2        1      9.3594      2.8233       42.6882646268    0.3129662418E+02
        4        2        2      9.3594      2.8233       42.9597854293    0.3723185109E+02
[...]
        1        1        2     -6.1066     -2.5703       32.5788696301    0.3836768745E+01
        1        1        3     -6.1066     -2.5703       73.7118229102    0.2767441206E+03
        1        1        4     -6.1066     -2.5703       92.2352680717    0.4406136831E+01
        1        1        5     -6.1066     -2.5703       92.3777650807    0.2501224289E-05
        1        1        6     -6.1066     -2.5703       99.6776158078    0.8350440125E+02
        1        2        1     -6.1066      0.8008       32.1775440557    0.2509709646E-05
        1        2        2     -6.1066      0.8008       32.5788696301    0.2226931119E+01
        1        2        3     -6.1066      0.8008       73.7118229102    0.2041841526E+03
        1        2        4     -6.1066      0.8008       92.2352680717    0.3475299500E+01
        1        2        5     -6.1066      0.8008       92.3777650807    0.7907697964E-06
        1        2        6     -6.1066      0.8008       99.6776158078    0.2025903845E+03
        1        3        1     -6.1066      8.2798       32.1775440557    0.5836170891E+02
        1        3        2     -6.1066      8.2798       32.5788696301    0.5492273017E+02
        1        3        3     -6.1066      8.2798       73.7118229102    0.6907080178E+00
        1        3        4     -6.1066      8.2798       92.2352680717    0.2089932467E+03
        1        3        5     -6.1066      8.2798       92.3777650807    0.2112941128E+03
        1        3        6     -6.1066      8.2798       99.6776158078    0.5057675962E+00
        1        4        1     -6.1066      8.2798       32.1775440557    0.5836170891E+02
        1        4        2     -6.1066      8.2798       32.5788696301    0.5492273017E+02
        1        4        3     -6.1066      8.2798       73.7118229102    0.6907080178E+00
        1        4        4     -6.1066      8.2798       92.2352680717    0.2089932467E+03
        1        4        5     -6.1066      8.2798       92.3777650807    0.2112941128E+03
        1        4        6     -6.1066      8.2798       99.6776158078    0.5057675962E+00
        2        1        1      9.3594     -2.5703       32.1775440557    0.5665352353E+02
        2        1        2      9.3594     -2.5703       32.5788696301    0.5509393935E+02
        2        1        3      9.3594     -2.5703       73.7118229102    0.5475383830E+02
        2        1        4      9.3594     -2.5703       92.2352680717    0.1832153073E+03
        2        1        5      9.3594     -2.5703       92.3777650807    0.1837436768E+03
        2        1        6      9.3594     -2.5703       99.6776158078    0.7217610702E+02
        2        2        1      9.3594      0.8008       32.1775440557    0.4347923313E+02
        2        2        2      9.3594      0.8008       32.5788696301    0.4683164791E+02
        2        2        3      9.3594      0.8008       73.7118229102    0.1426867618E+03
        2        2        4      9.3594      0.8008       92.2352680717    0.2457094297E+02
        2        2        5      9.3594      0.8008       92.3777650807    0.2319300562E+02
        2        2        6      9.3594      0.8008       99.6776158078    0.4727695278E+02
        2        3        1      9.3594      8.2798       32.1775440557    0.2195931166E+02
        2        3        2      9.3594      8.2798       32.5788696301    0.2493093606E+02
        2        3        3      9.3594      8.2798       73.7118229102    0.1843046949E+03
        2        3        4      9.3594      8.2798       92.2352680717    0.1187956484E+03
        2        3        5      9.3594      8.2798       92.3777650807    0.1192923223E+03
        2        3        6      9.3594      8.2798       99.6776158078    0.8773856377E+02
        2        4        1      9.3594      8.2798       32.1775440557    0.2195931166E+02
        2        4        2      9.3594      8.2798       32.5788696301    0.2493093606E+02
        2        4        3      9.3594      8.2798       73.7118229102    0.1843046949E+03
        2        4        4      9.3594      8.2798       92.2352680717    0.1187956484E+03
        2        4        5      9.3594      8.2798       92.3777650807    0.1192923223E+03
        2        4        6      9.3594      8.2798       99.6776158078    0.8773856377E+02
        3        1        1      9.3594     -2.5703       32.1775440557    0.5665352353E+02
        3        1        2      9.3594     -2.5703       32.5788696301    0.5509393935E+02
        3        1        3      9.3594     -2.5703       73.7118229102    0.5475383830E+02
        3        1        4      9.3594     -2.5703       92.2352680717    0.1832153073E+03
        3        1        5      9.3594     -2.5703       92.3777650807    0.1837436768E+03
        3        1        6      9.3594     -2.5703       99.6776158078    0.7217610702E+02
        3        2        1      9.3594      0.8008       32.1775440557    0.4347923313E+02
        3        2        2      9.3594      0.8008       32.5788696301    0.4683164791E+02
        3        2        3      9.3594      0.8008       73.7118229102    0.1426867618E+03
        3        2        4      9.3594      0.8008       92.2352680717    0.2457094297E+02
        3        2        5      9.3594      0.8008       92.3777650807    0.2319300562E+02
        3        2        6      9.3594      0.8008       99.6776158078    0.4727695278E+02
        3        3        1      9.3594      8.2798       32.1775440557    0.2195931166E+02
        3        3        2      9.3594      8.2798       32.5788696301    0.2493093606E+02
        3        3        3      9.3594      8.2798       73.7118229102    0.1843046949E+03
        3        3        4      9.3594      8.2798       92.2352680717    0.1187956484E+03
        3        3        5      9.3594      8.2798       92.3777650807    0.1192923223E+03
        3        3        6      9.3594      8.2798       99.6776158078    0.8773856377E+02
        3        4        1      9.3594      8.2798       32.1775440557    0.2195931166E+02
        3        4        2      9.3594      8.2798       32.5788696301    0.2493093606E+02
        3        4        3      9.3594      8.2798       73.7118229102    0.1843046949E+03
        3        4        4      9.3594      8.2798       92.2352680717    0.1187956484E+03
        3        4        5      9.3594      8.2798       92.3777650807    0.1192923223E+03
        3        4        6      9.3594      8.2798       99.6776158078    0.8773856377E+02
        4        1        1      9.3594     -2.5703       32.1775440557    0.5665352353E+02
        4        1        2      9.3594     -2.5703       32.5788696301    0.5509393935E+02
        4        1        3      9.3594     -2.5703       73.7118229102    0.5475383830E+02
        4        1        4      9.3594     -2.5703       92.2352680717    0.1832153073E+03
        4        1        5      9.3594     -2.5703       92.3777650807    0.1837436768E+03
        4        1        6      9.3594     -2.5703       99.6776158078    0.7217610702E+02
        4        2        1      9.3594      0.8008       32.1775440557    0.4347923313E+02
        4        2        2      9.3594      0.8008       32.5788696301    0.4683164791E+02
        4        2        3      9.3594      0.8008       73.7118229102    0.1426867618E+03
        4        2        4      9.3594      0.8008       92.2352680717    0.2457094297E+02
        4        2        5      9.3594      0.8008       92.3777650807    0.2319300562E+02
        4        2        6      9.3594      0.8008       99.6776158078    0.4727695278E+02
        4        3        1      9.3594      8.2798       32.1775440557    0.2195931166E+02
        4        3        2      9.3594      8.2798       32.5788696301    0.2493093606E+02
        4        3        3      9.3594      8.2798       73.7118229102    0.1843046949E+03
        4        3        4      9.3594      8.2798       92.2352680717    0.1187956484E+03
        4        3        5      9.3594      8.2798       92.3777650807    0.1192923223E+03
        4        3        6      9.3594      8.2798       99.6776158078    0.8773856377E+02
        4        4        1      9.3594      8.2798       32.1775440557    0.2195931166E+02
        4        4        2      9.3594      8.2798       32.5788696301    0.2493093606E+02
        4        4        3      9.3594      8.2798       73.7118229102    0.1843046949E+03
        4        4        4      9.3594      8.2798       92.2352680717    0.1187956484E+03
        4        4        5      9.3594      8.2798       92.3777650807    0.1192923223E+03
        4        4        6      9.3594      8.2798       99.6776158078    0.8773856377E+02
     ------------------------------------------------------------------------------

      Electron-phonon vertex |g| (meV)

     iq =      41 coord.:    0.5000000   0.5000000   0.5000000
     ik =       1 coord.:    0.0000000   0.0000000   0.0000000
      ibnd     jbnd     imode   enk[eV]    enk+q[eV]  omega(q)[meV]   |g|[meV]
     ------------------------------------------------------------------------------
        1        1        1     -6.1066     -2.5141       32.2624892367    0.1971596545E-05
        1        1        2     -6.1066     -2.5141       32.6760116053    0.4067537030E+01
        1        1        3     -6.1066     -2.5141       74.0646491173    0.2761864466E+03
        1        1        4     -6.1066     -2.5141       92.2091232581    0.4784763817E+01
        1        1        5     -6.1066     -2.5141       92.3565694741    0.2421205874E-05
        1        1        6     -6.1066     -2.5141       99.4706933889    0.8599662435E+02
        1        2        1     -6.1066      0.7239       32.2624892367    0.1983921534E-05
        1        2        2     -6.1066      0.7239       32.6760116053    0.2028437060E+01
        1        2        3     -6.1066      0.7239       74.0646491173    0.2080915959E+03
        1        2        4     -6.1066      0.7239       92.2091232581    0.2962929501E+01
        1        2        5     -6.1066      0.7239       92.3565694741    0.1223904003E-05
        1        2        6     -6.1066      0.7239       99.4706933889    0.1984368241E+03
        1        3        1     -6.1066      8.2747       32.2624892367    0.5706295859E+02
        1        3        2     -6.1066      8.2747       32.6760116053    0.5342893460E+02
        1        3        3     -6.1066      8.2747       74.0646491173    0.4528662875E+00
        1        3        4     -6.1066      8.2747       92.2091232581    0.2090690477E+03
        1        3        5     -6.1066      8.2747       92.3565694741    0.2114383046E+03
        1        3        6     -6.1066      8.2747       99.4706933889    0.5247732605E+00
        1        4        1     -6.1066      8.2747       32.2624892367    0.5706295859E+02
        1        4        2     -6.1066      8.2747       32.6760116053    0.5342893460E+02
        1        4        3     -6.1066      8.2747       74.0646491173    0.4528662875E+00
        1        4        4     -6.1066      8.2747       92.2091232581    0.2090690477E+03
        1        4        5     -6.1066      8.2747       92.3565694741    0.2114383046E+03
        1        4        6     -6.1066      8.2747       99.4706933889    0.5247732605E+00
        2        1        1      9.3594     -2.5141       32.2624892367    0.5529649034E+02
        2        1        2      9.3594     -2.5141       32.6760116053    0.5354851836E+02
        2        1        3      9.3594     -2.5141       74.0646491173    0.5395308551E+02
        2        1        4      9.3594     -2.5141       92.2091232581    0.1846324882E+03
        2        1        5      9.3594     -2.5141       92.3565694741    0.1851815833E+03
        2        1        6      9.3594     -2.5141       99.4706933889    0.6893276209E+02
        2        2        1      9.3594      0.7239       32.2624892367    0.4441413963E+02
        2        2        2      9.3594      0.7239       32.6760116053    0.4791309088E+02
        2        2        3      9.3594      0.7239       74.0646491173    0.1452424603E+03
        2        2        4      9.3594      0.7239       92.2091232581    0.8679388667E+01
        2        2        5      9.3594      0.7239       92.3565694741    0.1148450887E+01
        2        2        6      9.3594      0.7239       99.4706933889    0.4052135216E+02
        2        3        1      9.3594      8.2747       32.2624892367    0.2176666429E+02
        2        3        2      9.3594      8.2747       32.6760116053    0.2487871288E+02
        2        3        3      9.3594      8.2747       74.0646491173    0.1864741505E+03
        2        3        4      9.3594      8.2747       92.2091232581    0.1185468287E+03
        2        3        5      9.3594      8.2747       92.3565694741    0.1190661765E+03
        2        3        6      9.3594      8.2747       99.4706933889    0.8360066310E+02
        2        4        1      9.3594      8.2747       32.2624892367    0.2176666429E+02
        2        4        2      9.3594      8.2747       32.6760116053    0.2487871288E+02
        2        4        3      9.3594      8.2747       74.0646491173    0.1864741505E+03
        2        4        4      9.3594      8.2747       92.2091232581    0.1185468287E+03
        2        4        5      9.3594      8.2747       92.3565694741    0.1190661765E+03
        2        4        6      9.3594      8.2747       99.4706933889    0.8360066310E+02
        3        1        1      9.3594     -2.5141       32.2624892367    0.5529649034E+02
        3        1        2      9.3594     -2.5141       32.6760116053    0.5354851836E+02
        3        1        3      9.3594     -2.5141       74.0646491173    0.5395308551E+02
        3        1        4      9.3594     -2.5141       92.2091232581    0.1846324882E+03
        3        1        5      9.3594     -2.5141       92.3565694741    0.1851815833E+03
        3        1        6      9.3594     -2.5141       99.4706933889    0.6893276209E+02
        3        2        1      9.3594      0.7239       32.2624892367    0.4441413963E+02
        3        2        2      9.3594      0.7239       32.6760116053    0.4791309088E+02
        3        2        3      9.3594      0.7239       74.0646491173    0.1452424603E+03
        3        2        4      9.3594      0.7239       92.2091232581    0.8679388667E+01
        3        2        5      9.3594      0.7239       92.3565694741    0.1148450887E+01
        3        2        6      9.3594      0.7239       99.4706933889    0.4052135216E+02
        3        3        1      9.3594      8.2747       32.2624892367    0.2176666429E+02
        3        3        2      9.3594      8.2747       32.6760116053    0.2487871288E+02
        3        3        3      9.3594      8.2747       74.0646491173    0.1864741505E+03
        3        3        4      9.3594      8.2747       92.2091232581    0.1185468287E+03
        3        3        5      9.3594      8.2747       92.3565694741    0.1190661765E+03
        3        3        6      9.3594      8.2747       99.4706933889    0.8360066310E+02
        3        4        1      9.3594      8.2747       32.2624892367    0.2176666429E+02
        3        4        2      9.3594      8.2747       32.6760116053    0.2487871288E+02
        3        4        3      9.3594      8.2747       74.0646491173    0.1864741505E+03
        3        4        4      9.3594      8.2747       92.2091232581    0.1185468287E+03
        3        4        5      9.3594      8.2747       92.3565694741    0.1190661765E+03
        3        4        6      9.3594      8.2747       99.4706933889    0.8360066310E+02
        4        1        1      9.3594     -2.5141       32.2624892367    0.5529649034E+02
        4        1        2      9.3594     -2.5141       32.6760116053    0.5354851836E+02
        4        1        3      9.3594     -2.5141       74.0646491173    0.5395308551E+02
        4        1        4      9.3594     -2.5141       92.2091232581    0.1846324882E+03
        4        1        5      9.3594     -2.5141       92.3565694741    0.1851815833E+03
        4        1        6      9.3594     -2.5141       99.4706933889    0.6893276209E+02
        4        2        1      9.3594      0.7239       32.2624892367    0.4441413963E+02
        4        2        2      9.3594      0.7239       32.6760116053    0.4791309088E+02
        4        2        3      9.3594      0.7239       74.0646491173    0.1452424603E+03
        4        2        4      9.3594      0.7239       92.2091232581    0.8679388667E+01
        4        2        5      9.3594      0.7239       92.3565694741    0.1148450887E+01
        4        2        6      9.3594      0.7239       99.4706933889    0.4052135216E+02
        4        3        1      9.3594      8.2747       32.2624892367    0.2176666429E+02
        4        3        2      9.3594      8.2747       32.6760116053    0.2487871288E+02
        4        3        3      9.3594      8.2747       74.0646491173    0.1864741505E+03
        4        3        4      9.3594      8.2747       92.2091232581    0.1185468287E+03
        4        3        5      9.3594      8.2747       92.3565694741    0.1190661765E+03
        4        3        6      9.3594      8.2747       99.4706933889    0.8360066310E+02
        4        4        1      9.3594      8.2747       32.2624892367    0.2176666429E+02
        4        4        2      9.3594      8.2747       32.6760116053    0.2487871288E+02
        4        4        3      9.3594      8.2747       74.0646491173    0.1864741505E+03
        4        4        4      9.3594      8.2747       92.2091232581    0.1185468287E+03
        4        4        5      9.3594      8.2747       92.3565694741    0.1190661765E+03
        4        4        6      9.3594      8.2747       99.4706933889    0.8360066310E+02
     ------------------------------------------------------------------------------

System file does not exist
     ===================================================================
     Memory usage:  VmHWM =         0Mb
                   VmPeak =         0Mb
     ===================================================================


     Unfolding on the coarse grid
     elphon_wrap  :     15.29s CPU     15.77s WALL (       1 calls)

     INITIALIZATION: 

     init_vloc    :      0.00s CPU      0.00s WALL (       1 calls)
     init_us_1    :      0.02s CPU      0.02s WALL (       2 calls)



     Electron-Phonon interpolation
     ephwann      :      0.55s CPU      0.70s WALL (       1 calls)
     ep-interp    :      0.05s CPU      0.08s WALL (      41 calls)

     Ham: step 1  :      0.00s CPU      0.00s WALL (       1 calls)
     Ham: step 2  :      0.00s CPU      0.00s WALL (       1 calls)
     ep: step 1   :      0.00s CPU      0.00s WALL (     162 calls)
     ep: step 2   :      0.39s CPU      0.53s WALL (       1 calls)
     DynW2B       :      0.00s CPU      0.00s WALL (      41 calls)
     HamW2B       :      0.00s CPU      0.00s WALL (     126 calls)
     ephW2Bp      :      0.03s CPU      0.06s WALL (      41 calls)
     ephW2B       :      0.00s CPU      0.00s WALL (      41 calls)
     vmewan2bloch :      0.00s CPU      0.00s WALL (      82 calls)
     vmewan2bloch :      0.00s CPU      0.00s WALL (      82 calls)


     Total program execution
     EPW          :     19.44s CPU     20.24s WALL

     ===============================================================================
     The functionality-dependent EPW.bib file was created with suggested citations. 
     Please consider citing the papers listed in EPW.bib.                           
     ===============================================================================
                                                                                    
