 written on 15Jun2021 at 20:04:13 
         216           8
   -0.214573    0.214573   -0.214573    2.714925
    0.214573    0.214573    0.214573    2.714925
   -0.214573   -0.214573    0.214573    2.714925
   -0.214573    0.214573    0.214573    2.714925
    0.214573   -0.214573    0.214573    2.714925
   -0.214573   -0.214573   -0.214573    2.714925
    0.214573    0.214573   -0.214573    2.714925
    0.214573   -0.214573   -0.214573    2.714925
    0.214573   -0.214573    0.214573    2.714925
   -0.214573    0.214573   -0.214573    2.714925
    0.214573    0.214573    0.214573    2.714925
   -0.214573   -0.214573    0.214573    2.714925
   -0.214573    0.214573    0.214574    2.714925
   -0.214573   -0.214573   -0.214573    2.714925
    0.214573    0.214573   -0.214573    2.714925
    0.214573   -0.214573   -0.214573    2.714925
    0.214573   -0.214573    0.214573    2.714925
   -0.214573    0.214573   -0.214573    2.714925
    0.214573    0.214573    0.214573    2.714925
   -0.214573   -0.214573    0.214573    2.714925
   -0.214573    0.214573    0.214573    2.714925
   -0.214573   -0.214573   -0.214573    2.714925
    0.214573    0.214573   -0.214573    2.714925
    0.214573   -0.214573   -0.214574    2.714925
    0.214573   -0.214573    0.214573    2.714925
   -0.214573    0.214573   -0.214573    2.714925
    0.214573    0.214573    0.214573    2.714925
   -0.214573   -0.214573    0.214573    2.714925
   -0.214573    0.214573    0.214573    2.714925
   -0.214573   -0.214573   -0.214573    2.714925
    0.214573    0.214573   -0.214573    2.714925
    0.214573   -0.214573   -0.214573    2.714925
    0.214573   -0.214573    0.214573    2.714925
   -0.214573    0.214573   -0.214573    2.714925
    0.214573    0.214573    0.214573    2.714925
   -0.214573   -0.214573    0.214573    2.714925
   -0.214573    0.214573    0.214574    2.714925
   -0.214573   -0.214573   -0.214573    2.714925
    0.214573    0.214573   -0.214573    2.714925
    0.214573   -0.214573   -0.214573    2.714925
    0.214573   -0.214573    0.214573    2.714925
    0.214573    0.214573    0.214573    2.714925
   -0.214573   -0.214573    0.214573    2.714925
   -0.214573    0.214573   -0.214573    2.714925
   -0.214573    0.214573    0.214573    2.714925
   -0.214573   -0.214573   -0.214573    2.714925
    0.214573    0.214573   -0.214573    2.714925
    0.214573   -0.214573   -0.214574    2.714925
   -0.214573   -0.214573   -0.214573    2.714925
   -0.214573    0.214573   -0.214573    2.714925
    0.214573    0.214573    0.214573    2.714925
   -0.214573   -0.214573    0.214573    2.714925
   -0.214574    0.214573    0.214573    2.714925
    0.214573   -0.214573    0.214573    2.714925
    0.214573    0.214573   -0.214573    2.714925
    0.214573   -0.214573   -0.214573    2.714925
   -0.214573   -0.214573   -0.214573    2.714925
    0.214573   -0.214573    0.214573    2.714925
   -0.214573    0.214573   -0.214573    2.714925
    0.214573    0.214573    0.214573    2.714925
   -0.214573   -0.214573    0.214573    2.714925
   -0.214573    0.214573    0.214573    2.714925
    0.214573   -0.214573   -0.214573    2.714925
    0.214573    0.214573   -0.214573    2.714925
   -0.214573   -0.214573   -0.214573    2.714925
    0.214573   -0.214573    0.214573    2.714925
   -0.214573    0.214573   -0.214573    2.714925
    0.214573    0.214573    0.214573    2.714925
   -0.214573   -0.214573    0.214573    2.714925
   -0.214574    0.214573    0.214573    2.714925
    0.214573   -0.214573   -0.214574    2.714925
    0.214573    0.214573   -0.214573    2.714925
   -0.214573   -0.214573   -0.214573    2.714925
    0.214573   -0.214573    0.214573    2.714925
   -0.214573    0.214573   -0.214573    2.714925
    0.214573    0.214573    0.214573    2.714925
   -0.214573   -0.214573    0.214573    2.714925
   -0.214574    0.214573    0.214573    2.714925
    0.214573   -0.214573   -0.214573    2.714925
    0.214573    0.214573   -0.214573    2.714925
   -0.214573   -0.214573   -0.214573    2.714925
    0.214573   -0.214573    0.214573    2.714925
   -0.214573    0.214573   -0.214573    2.714925
    0.214573    0.214573    0.214573    2.714925
   -0.214573   -0.214573    0.214573    2.714925
   -0.214573    0.214573    0.214573    2.714925
    0.214573   -0.214573   -0.214573    2.714925
    0.214573    0.214573   -0.214573    2.714925
   -0.214573   -0.214573   -0.214573    2.714925
    0.214573   -0.214573    0.214573    2.714925
    0.214573    0.214573    0.214573    2.714925
   -0.214573   -0.214573    0.214573    2.714925
   -0.214573    0.214573   -0.214573    2.714925
   -0.214574    0.214573    0.214573    2.714925
    0.214573   -0.214573   -0.214574    2.714925
    0.214573    0.214573   -0.214573    2.714925
   -0.214573   -0.214573   -0.214573    2.714925
   -0.214573    0.214573   -0.214573    2.714925
    0.214573    0.214573    0.214573    2.714925
   -0.214573   -0.214573    0.214573    2.714925
   -0.214573    0.214573    0.214573    2.714925
    0.214573   -0.214573    0.214573    2.714925
    0.214573    0.214573   -0.214573    2.714925
    0.214574   -0.214573   -0.214573    2.714925
   -0.214573   -0.214573   -0.214573    2.714925
    0.214573   -0.214573    0.214573    2.714925
   -0.214573    0.214573   -0.214573    2.714925
    0.214573    0.214573    0.214573    2.714925
   -0.214573   -0.214573    0.214573    2.714925
   -0.214573    0.214573    0.214574    2.714925
    0.214574   -0.214573   -0.214573    2.714925
    0.214573    0.214573   -0.214573    2.714925
   -0.214573   -0.214573   -0.214573    2.714925
    0.214573   -0.214573    0.214573    2.714925
   -0.214573    0.214573   -0.214573    2.714925
    0.214573    0.214573    0.214573    2.714925
   -0.214573   -0.214573    0.214573    2.714925
   -0.214573    0.214573    0.214573    2.714925
    0.214573   -0.214573   -0.214573    2.714925
    0.214573    0.214573   -0.214573    2.714925
   -0.214573   -0.214573   -0.214573    2.714925
    0.214573   -0.214573    0.214573    2.714925
   -0.214573    0.214573   -0.214573    2.714925
    0.214573    0.214573    0.214573    2.714925
   -0.214573   -0.214573    0.214573    2.714925
   -0.214573    0.214573    0.214573    2.714925
    0.214574   -0.214573   -0.214573    2.714925
    0.214573    0.214573   -0.214573    2.714925
   -0.214573   -0.214573   -0.214573    2.714925
    0.214573   -0.214573    0.214573    2.714925
   -0.214573    0.214573   -0.214573    2.714925
    0.214573    0.214573    0.214573    2.714925
   -0.214573   -0.214573    0.214573    2.714925
   -0.214573    0.214573    0.214574    2.714925
    0.214574   -0.214573   -0.214573    2.714925
    0.214573    0.214573   -0.214573    2.714925
   -0.214573   -0.214573   -0.214573    2.714925
    0.214573   -0.214573    0.214573    2.714925
    0.214573    0.214573    0.214573    2.714925
   -0.214573   -0.214573    0.214573    2.714925
   -0.214573    0.214573   -0.214573    2.714925
   -0.214573    0.214573    0.214573    2.714925
    0.214573   -0.214573   -0.214573    2.714925
    0.214573    0.214573   -0.214573    2.714925
   -0.214573   -0.214573   -0.214573    2.714925
   -0.214573    0.214573   -0.214573    2.714925
    0.214573    0.214573    0.214573    2.714925
   -0.214573   -0.214573    0.214573    2.714925
   -0.214573    0.214573    0.214573    2.714925
    0.214573   -0.214573    0.214573    2.714925
    0.214573    0.214573   -0.214573    2.714925
    0.214573   -0.214573   -0.214573    2.714925
   -0.214573   -0.214573   -0.214573    2.714925
    0.214573   -0.214573    0.214573    2.714925
   -0.214573    0.214573   -0.214573    2.714925
    0.214573    0.214573    0.214573    2.714925
   -0.214573   -0.214573    0.214573    2.714925
   -0.214573    0.214573    0.214574    2.714925
    0.214573   -0.214573   -0.214573    2.714925
    0.214573    0.214573   -0.214573    2.714925
   -0.214573   -0.214573   -0.214573    2.714925
    0.214573   -0.214573    0.214573    2.714925
   -0.214573    0.214573   -0.214573    2.714925
    0.214573    0.214573    0.214573    2.714925
   -0.214573   -0.214573    0.214573    2.714925
   -0.214573    0.214573    0.214573    2.714925
    0.214573   -0.214573   -0.214574    2.714925
    0.214573    0.214573   -0.214573    2.714925
   -0.214573   -0.214573   -0.214573    2.714925
    0.214573   -0.214573    0.214573    2.714925
   -0.214573    0.214573   -0.214573    2.714925
    0.214573    0.214573    0.214573    2.714925
   -0.214573   -0.214573    0.214573    2.714925
   -0.214573    0.214573    0.214573    2.714925
    0.214573   -0.214573   -0.214573    2.714925
    0.214573    0.214573   -0.214573    2.714925
   -0.214573   -0.214573   -0.214573    2.714925
    0.214573   -0.214573    0.214573    2.714925
   -0.214573    0.214573   -0.214573    2.714925
    0.214573    0.214573    0.214573    2.714925
   -0.214573   -0.214573    0.214573    2.714925
   -0.214573    0.214573    0.214574    2.714925
    0.214573   -0.214573   -0.214573    2.714925
    0.214573    0.214573   -0.214573    2.714925
   -0.214573   -0.214573   -0.214573    2.714925
    0.214573   -0.214573    0.214573    2.714925
    0.214573    0.214573    0.214573    2.714925
   -0.214573   -0.214573    0.214573    2.714925
   -0.214573    0.214573   -0.214573    2.714925
   -0.214573    0.214573    0.214573    2.714925
    0.214573   -0.214573   -0.214574    2.714925
    0.214573    0.214573   -0.214573    2.714925
   -0.214573   -0.214573   -0.214573    2.714925
   -0.214573    0.214573   -0.214573    2.714925
    0.214573    0.214573    0.214573    2.714925
   -0.214573   -0.214573    0.214573    2.714925
   -0.214574    0.214573    0.214573    2.714925
    0.214573   -0.214573    0.214573    2.714925
    0.214573    0.214573   -0.214573    2.714925
    0.214573   -0.214573   -0.214573    2.714925
   -0.214573   -0.214573   -0.214573    2.714925
    0.214573   -0.214573    0.214573    2.714925
   -0.214573    0.214573   -0.214573    2.714925
    0.214573    0.214573    0.214573    2.714925
   -0.214573   -0.214573    0.214573    2.714925
   -0.214573    0.214573    0.214573    2.714925
    0.214573   -0.214573   -0.214573    2.714925
    0.214573    0.214573   -0.214573    2.714925
   -0.214573   -0.214573   -0.214573    2.714925
    0.214573   -0.214573    0.214573    2.714925
   -0.214573    0.214573   -0.214573    2.714925
    0.214573    0.214573    0.214573    2.714925
   -0.214573   -0.214573    0.214573    2.714925
   -0.214574    0.214573    0.214573    2.714925
    0.214573   -0.214573   -0.214574    2.714925
    0.214573    0.214573   -0.214573    2.714925
   -0.214573   -0.214573   -0.214573    2.714925
    0.214573   -0.214573    0.214573    2.714925
   -0.214573    0.214573   -0.214573    2.714925
    0.214573    0.214573    0.214573    2.714925
   -0.214573   -0.214573    0.214573    2.714925
   -0.214574    0.214573    0.214573    2.714925
    0.214573   -0.214573   -0.214573    2.714925
    0.214573    0.214573   -0.214573    2.714925
   -0.214573   -0.214573   -0.214573    2.714925
    0.214573   -0.214573    0.214573    2.714925
   -0.214573    0.214573   -0.214573    2.714925
    0.214573    0.214573    0.214573    2.714925
   -0.214573   -0.214573    0.214573    2.714925
   -0.214573    0.214573    0.214573    2.714925
    0.214573   -0.214573   -0.214573    2.714925
    0.214573    0.214573   -0.214573    2.714925
   -0.214573   -0.214573   -0.214573    2.714925
    0.214573   -0.214573    0.214573    2.714925
    0.214573    0.214573    0.214573    2.714925
   -0.214573   -0.214573    0.214573    2.714925
   -0.214573    0.214573   -0.214573    2.714925
   -0.214574    0.214573    0.214573    2.714925
    0.214573   -0.214573   -0.214574    2.714925
    0.214573    0.214573   -0.214573    2.714925
   -0.214573   -0.214573   -0.214573    2.714925
   -0.214573    0.214573   -0.214573    2.714925
   -0.214573   -0.214573    0.214573    2.714925
    0.214573    0.214573    0.214573    2.714925
   -0.214573    0.214573    0.214573    2.714925
    0.214573   -0.214573    0.214573    2.714925
    0.214573    0.214573   -0.214573    2.714925
    0.214574   -0.214573   -0.214573    2.714925
   -0.214573   -0.214573   -0.214573    2.714925
    0.214573   -0.214573    0.214573    2.714925
   -0.214573    0.214573   -0.214573    2.714925
   -0.214573   -0.214573    0.214573    2.714925
    0.214573    0.214573    0.214573    2.714925
   -0.214573    0.214573    0.214574    2.714925
    0.214574   -0.214573   -0.214573    2.714925
    0.214573    0.214573   -0.214573    2.714925
   -0.214573   -0.214573   -0.214573    2.714925
    0.214573   -0.214573    0.214573    2.714925
   -0.214573    0.214573   -0.214573    2.714925
   -0.214573   -0.214573    0.214573    2.714925
    0.214573    0.214573    0.214573    2.714925
   -0.214573    0.214573    0.214573    2.714925
    0.214573   -0.214573   -0.214573    2.714925
    0.214573    0.214573   -0.214573    2.714925
   -0.214573   -0.214573   -0.214573    2.714925
    0.214573   -0.214573    0.214573    2.714925
   -0.214573    0.214573   -0.214573    2.714925
   -0.214573   -0.214573    0.214573    2.714925
    0.214573    0.214573    0.214573    2.714925
   -0.214573    0.214573    0.214573    2.714925
    0.214574   -0.214573   -0.214573    2.714925
    0.214573    0.214573   -0.214573    2.714925
   -0.214573   -0.214573   -0.214573    2.714925
    0.214573   -0.214573    0.214573    2.714925
   -0.214573    0.214573   -0.214573    2.714925
   -0.214573   -0.214573    0.214573    2.714925
    0.214573    0.214573    0.214573    2.714925
   -0.214573    0.214573    0.214574    2.714925
    0.214574   -0.214573   -0.214573    2.714925
    0.214573    0.214573   -0.214573    2.714925
   -0.214573   -0.214573   -0.214573    2.714925
    0.214573   -0.214573    0.214573    2.714925
   -0.214573   -0.214573    0.214573    2.714925
    0.214573    0.214573    0.214573    2.714925
   -0.214573    0.214573   -0.214573    2.714925
    0.214573   -0.214573   -0.214573    2.714925
    0.214573    0.214573   -0.214573    2.714925
   -0.214573    0.214573    0.214573    2.714925
    0.214573    0.214573   -0.214573    2.714925
   -0.214573    0.214573   -0.214573    2.714925
    0.214573    0.214573    0.214573    2.714925
   -0.214573   -0.214573    0.214573    2.714925
   -0.214573    0.214574    0.214573    2.714925
    0.214573   -0.214573    0.214573    2.714925
   -0.214573   -0.214573   -0.214573    2.714925
    0.214573   -0.214573   -0.214573    2.714925
    0.214573    0.214573   -0.214573    2.714925
    0.214573   -0.214573    0.214573    2.714925
   -0.214573    0.214573   -0.214573    2.714925
    0.214573    0.214573    0.214573    2.714925
   -0.214573   -0.214573    0.214573    2.714925
   -0.214573    0.214573    0.214573    2.714925
    0.214573   -0.214573   -0.214573    2.714925
   -0.214573   -0.214573   -0.214573    2.714925
    0.214573    0.214573   -0.214573    2.714925
    0.214573   -0.214573    0.214573    2.714925
   -0.214573    0.214573   -0.214573    2.714925
    0.214573    0.214573    0.214573    2.714925
   -0.214573   -0.214573    0.214573    2.714925
   -0.214573    0.214574    0.214573    2.714925
    0.214573   -0.214573   -0.214574    2.714925
   -0.214573   -0.214573   -0.214573    2.714925
    0.214573    0.214573   -0.214573    2.714925
    0.214573   -0.214573    0.214573    2.714925
   -0.214573    0.214573   -0.214573    2.714925
    0.214573    0.214573    0.214573    2.714925
   -0.214573   -0.214573    0.214573    2.714925
   -0.214573    0.214574    0.214573    2.714925
    0.214573   -0.214573   -0.214573    2.714925
   -0.214573   -0.214573   -0.214573    2.714925
    0.214573    0.214573   -0.214573    2.714925
    0.214573   -0.214573    0.214573    2.714925
   -0.214573    0.214573   -0.214573    2.714925
    0.214573    0.214573    0.214573    2.714925
   -0.214573   -0.214573    0.214573    2.714925
   -0.214573    0.214573    0.214573    2.714925
    0.214573   -0.214573   -0.214573    2.714925
   -0.214573   -0.214573   -0.214573    2.714925
    0.214573    0.214573   -0.214573    2.714925
    0.214573   -0.214573    0.214573    2.714925
    0.214573    0.214573    0.214573    2.714925
   -0.214573   -0.214573    0.214573    2.714925
   -0.214573    0.214573   -0.214573    2.714925
   -0.214573    0.214574    0.214573    2.714925
    0.214573   -0.214573   -0.214574    2.714925
   -0.214573   -0.214573   -0.214573    2.714925
    0.214573    0.214573   -0.214573    2.714925
   -0.214573   -0.214573   -0.214573    2.714925
   -0.214573    0.214573   -0.214573    2.714925
    0.214573    0.214573    0.214573    2.714925
   -0.214573   -0.214573    0.214573    2.714925
   -0.214573    0.214573    0.214573    2.714925
    0.214573   -0.214573   -0.214573    2.714925
    0.214573   -0.214573    0.214573    2.714925
    0.214573   -0.214573   -0.214573    2.714925
    0.214573    0.214573   -0.214573    2.714925
   -0.214573   -0.214573   -0.214573    2.714925
    0.214573   -0.214573    0.214573    2.714925
   -0.214573    0.214573   -0.214573    2.714925
    0.214573    0.214573    0.214573    2.714925
   -0.214573   -0.214573    0.214573    2.714925
   -0.214573    0.214573    0.214573    2.714925
    0.214573   -0.214573   -0.214574    2.714925
    0.214573    0.214573   -0.214573    2.714925
   -0.214573   -0.214573   -0.214573    2.714925
    0.214573   -0.214573    0.214573    2.714925
   -0.214573    0.214573   -0.214573    2.714925
    0.214573    0.214573    0.214573    2.714925
   -0.214573   -0.214573    0.214573    2.714925
   -0.214573    0.214573    0.214573    2.714925
    0.214573   -0.214573   -0.214573    2.714925
    0.214573    0.214573   -0.214573    2.714925
   -0.214573   -0.214573   -0.214573    2.714925
    0.214573   -0.214573    0.214573    2.714925
   -0.214573    0.214573   -0.214573    2.714925
    0.214573    0.214573    0.214573    2.714925
   -0.214573   -0.214573    0.214573    2.714925
   -0.214573    0.214573    0.214573    2.714925
    0.214573   -0.214573   -0.214573    2.714925
    0.214573    0.214573   -0.214573    2.714925
   -0.214573   -0.214573   -0.214573    2.714925
    0.214573   -0.214573    0.214573    2.714925
   -0.214573    0.214573   -0.214573    2.714925
    0.214573    0.214573    0.214573    2.714925
   -0.214573   -0.214573    0.214573    2.714925
   -0.214573    0.214573    0.214573    2.714925
    0.214573   -0.214573   -0.214574    2.714925
    0.214573    0.214573   -0.214573    2.714925
   -0.214573   -0.214573   -0.214573    2.714925
    0.214573   -0.214573    0.214573    2.714925
    0.214573    0.214573    0.214573    2.714925
   -0.214573   -0.214573    0.214573    2.714925
   -0.214573    0.214573   -0.214573    2.714925
   -0.214573    0.214573    0.214573    2.714925
    0.214573    0.214573   -0.214573    2.714925
   -0.214573   -0.214573   -0.214573    2.714925
   -0.214573    0.214573   -0.214573    2.714925
    0.214573    0.214573    0.214573    2.714925
   -0.214573   -0.214573    0.214573    2.714925
   -0.214573    0.214574    0.214573    2.714925
    0.214574   -0.214573   -0.214573    2.714925
    0.214573   -0.214573    0.214573    2.714925
    0.214574   -0.214573   -0.214573    2.714925
    0.214573    0.214573   -0.214573    2.714925
   -0.214573   -0.214573   -0.214573    2.714925
    0.214573   -0.214573    0.214573    2.714925
   -0.214573    0.214573   -0.214573    2.714925
    0.214573    0.214573    0.214573    2.714925
   -0.214573   -0.214573    0.214573    2.714925
   -0.214573    0.214573    0.214573    2.714925
    0.214573   -0.214573   -0.214573    2.714925
    0.214573    0.214573   -0.214573    2.714925
   -0.214573   -0.214573   -0.214573    2.714925
    0.214573   -0.214573    0.214573    2.714925
   -0.214573    0.214573   -0.214573    2.714925
    0.214573    0.214573    0.214573    2.714925
   -0.214573   -0.214573    0.214573    2.714925
   -0.214573    0.214574    0.214573    2.714925
    0.214574   -0.214573   -0.214573    2.714925
    0.214573    0.214573   -0.214573    2.714925
   -0.214573   -0.214573   -0.214573    2.714925
    0.214573   -0.214573    0.214573    2.714925
   -0.214573    0.214573   -0.214573    2.714925
    0.214573    0.214573    0.214573    2.714925
   -0.214573   -0.214573    0.214573    2.714925
   -0.214573    0.214574    0.214573    2.714925
    0.214574   -0.214573   -0.214573    2.714925
    0.214573    0.214573   -0.214573    2.714925
   -0.214573   -0.214573   -0.214573    2.714925
    0.214573   -0.214573    0.214573    2.714925
   -0.214573    0.214573   -0.214573    2.714925
    0.214573    0.214573    0.214573    2.714925
   -0.214573   -0.214573    0.214573    2.714925
   -0.214573    0.214573    0.214573    2.714925
    0.214573   -0.214573   -0.214573    2.714925
    0.214573    0.214573   -0.214573    2.714925
   -0.214573   -0.214573   -0.214573    2.714925
    0.214573   -0.214573    0.214573    2.714925
    0.214573    0.214573    0.214573    2.714925
   -0.214573   -0.214573    0.214573    2.714925
   -0.214573    0.214573   -0.214573    2.714925
   -0.214573    0.214574    0.214573    2.714925
    0.214573    0.214573   -0.214573    2.714925
   -0.214573   -0.214573   -0.214573    2.714925
   -0.214573    0.214573   -0.214573    2.714925
    0.214573    0.214573    0.214573    2.714925
   -0.214573   -0.214573    0.214573    2.714925
   -0.214573    0.214574    0.214573    2.714925
    0.214573   -0.214573   -0.214573    2.714925
    0.214573   -0.214573    0.214573    2.714925
    0.214573   -0.214573   -0.214573    2.714925
    0.214573    0.214573   -0.214573    2.714925
   -0.214573   -0.214573   -0.214573    2.714925
    0.214573   -0.214573    0.214573    2.714925
   -0.214573    0.214573   -0.214573    2.714925
    0.214573    0.214573    0.214573    2.714925
   -0.214573   -0.214573    0.214573    2.714925
   -0.214573    0.214573    0.214573    2.714925
    0.214573   -0.214573   -0.214574    2.714925
    0.214573    0.214573   -0.214573    2.714925
   -0.214573   -0.214573   -0.214573    2.714925
    0.214573   -0.214573    0.214573    2.714925
   -0.214573    0.214573   -0.214573    2.714925
    0.214573    0.214573    0.214573    2.714925
   -0.214573   -0.214573    0.214573    2.714925
   -0.214573    0.214574    0.214573    2.714925
    0.214573   -0.214573   -0.214573    2.714925
    0.214573    0.214573   -0.214573    2.714925
   -0.214573   -0.214573   -0.214573    2.714925
    0.214573   -0.214573    0.214573    2.714925
   -0.214573    0.214573   -0.214573    2.714925
    0.214573    0.214573    0.214573    2.714925
   -0.214573   -0.214573    0.214573    2.714925
   -0.214573    0.214574    0.214573    2.714925
    0.214573   -0.214573   -0.214573    2.714925
    0.214573    0.214573   -0.214573    2.714925
   -0.214573   -0.214573   -0.214573    2.714925
    0.214573   -0.214573    0.214573    2.714925
   -0.214573    0.214573   -0.214573    2.714925
    0.214573    0.214573    0.214573    2.714925
   -0.214573   -0.214573    0.214573    2.714925
   -0.214573    0.214573    0.214573    2.714925
    0.214573   -0.214573   -0.214574    2.714925
    0.214573    0.214573   -0.214573    2.714925
   -0.214573   -0.214573   -0.214573    2.714925
    0.214573   -0.214573    0.214573    2.714925
    0.214573    0.214573    0.214573    2.714925
   -0.214573   -0.214573    0.214573    2.714925
   -0.214573    0.214573   -0.214573    2.714925
   -0.214573    0.214574    0.214573    2.714925
    0.214573    0.214573   -0.214573    2.714925
   -0.214573   -0.214573   -0.214573    2.714925
   -0.214573    0.214573   -0.214573    2.714925
    0.214573    0.214573    0.214573    2.714925
   -0.214573   -0.214573    0.214573    2.714925
   -0.214573    0.214573    0.214573    2.714925
    0.214573   -0.214573   -0.214573    2.714925
    0.214573   -0.214573    0.214573    2.714925
    0.214573   -0.214573   -0.214573    2.714925
    0.214573    0.214573   -0.214573    2.714925
   -0.214573   -0.214573   -0.214573    2.714925
    0.214573   -0.214573    0.214573    2.714925
   -0.214573    0.214573   -0.214573    2.714925
    0.214573    0.214573    0.214573    2.714925
   -0.214573   -0.214573    0.214573    2.714925
   -0.214573    0.214573    0.214573    2.714925
    0.214573   -0.214573   -0.214574    2.714925
    0.214573    0.214573   -0.214573    2.714925
   -0.214573   -0.214573   -0.214573    2.714925
    0.214573   -0.214573    0.214573    2.714925
   -0.214573    0.214573   -0.214573    2.714925
    0.214573    0.214573    0.214573    2.714925
   -0.214573   -0.214573    0.214573    2.714925
   -0.214573    0.214573    0.214573    2.714925
    0.214573   -0.214573   -0.214573    2.714925
    0.214573    0.214573   -0.214573    2.714925
   -0.214573   -0.214573   -0.214573    2.714925
    0.214573   -0.214573    0.214573    2.714925
   -0.214573    0.214573   -0.214573    2.714925
    0.214573    0.214573    0.214573    2.714925
   -0.214573   -0.214573    0.214573    2.714925
   -0.214573    0.214573    0.214573    2.714925
    0.214573   -0.214573   -0.214573    2.714925
    0.214573    0.214573   -0.214573    2.714925
   -0.214573   -0.214573   -0.214573    2.714925
    0.214573   -0.214573    0.214573    2.714925
   -0.214573    0.214573   -0.214573    2.714925
    0.214573    0.214573    0.214573    2.714925
   -0.214573   -0.214573    0.214573    2.714925
   -0.214573    0.214573    0.214573    2.714925
    0.214573   -0.214573   -0.214574    2.714925
    0.214573    0.214573   -0.214573    2.714925
   -0.214573   -0.214573   -0.214573    2.714925
    0.214573   -0.214573    0.214573    2.714925
    0.214573    0.214573    0.214573    2.714925
   -0.214573   -0.214573    0.214573    2.714925
   -0.214573    0.214573   -0.214573    2.714925
   -0.214573    0.214573    0.214573    2.714925
    0.214573    0.214573   -0.214573    2.714925
   -0.214573   -0.214573   -0.214573    2.714925
   -0.214573    0.214573   -0.214573    2.714925
   -0.214573   -0.214573    0.214573    2.714925
    0.214573    0.214573    0.214573    2.714925
   -0.214573    0.214574    0.214573    2.714925
    0.214574   -0.214573   -0.214573    2.714925
    0.214573   -0.214573    0.214573    2.714925
    0.214574   -0.214573   -0.214573    2.714925
    0.214573    0.214573   -0.214573    2.714925
   -0.214573   -0.214573   -0.214573    2.714925
    0.214573   -0.214573    0.214573    2.714925
   -0.214573    0.214573   -0.214573    2.714925
   -0.214573   -0.214573    0.214573    2.714925
    0.214573    0.214573    0.214573    2.714925
   -0.214573    0.214573    0.214573    2.714925
    0.214573   -0.214573   -0.214573    2.714925
    0.214573    0.214573   -0.214573    2.714925
   -0.214573   -0.214573   -0.214573    2.714925
    0.214573   -0.214573    0.214573    2.714925
   -0.214573    0.214573   -0.214573    2.714925
   -0.214573   -0.214573    0.214573    2.714925
    0.214573    0.214573    0.214573    2.714925
   -0.214573    0.214574    0.214573    2.714925
    0.214574   -0.214573   -0.214573    2.714925
    0.214573    0.214573   -0.214573    2.714925
   -0.214573   -0.214573   -0.214573    2.714925
    0.214573   -0.214573    0.214573    2.714925
   -0.214573    0.214573   -0.214573    2.714925
   -0.214573   -0.214573    0.214573    2.714925
    0.214573    0.214573    0.214573    2.714925
   -0.214573    0.214574    0.214573    2.714925
    0.214574   -0.214573   -0.214573    2.714925
    0.214573    0.214573   -0.214573    2.714925
   -0.214573   -0.214573   -0.214573    2.714925
    0.214573   -0.214573    0.214573    2.714925
   -0.214573    0.214573   -0.214573    2.714925
   -0.214573   -0.214573    0.214573    2.714925
    0.214573    0.214573    0.214573    2.714925
   -0.214573    0.214573    0.214573    2.714925
    0.214573   -0.214573   -0.214573    2.714925
    0.214573    0.214573   -0.214573    2.714925
   -0.214573   -0.214573   -0.214573    2.714925
    0.214573   -0.214573    0.214573    2.714925
   -0.214573   -0.214573    0.214573    2.714925
    0.214573    0.214573    0.214573    2.714925
   -0.214573    0.214573   -0.214573    2.714925
   -0.214573    0.214574    0.214573    2.714925
    0.214573    0.214573   -0.214573    2.714925
   -0.214573    0.214573   -0.214573    2.714925
    0.214573    0.214573    0.214573    2.714925
   -0.214573   -0.214573    0.214573    2.714925
   -0.214573    0.214573    0.214573    2.714925
    0.214573   -0.214573    0.214573    2.714925
   -0.214573   -0.214573   -0.214573    2.714925
    0.214573   -0.214574   -0.214573    2.714925
    0.214573    0.214573   -0.214573    2.714925
    0.214573   -0.214573    0.214573    2.714925
   -0.214573    0.214573   -0.214573    2.714925
    0.214573    0.214573    0.214573    2.714925
   -0.214573   -0.214573    0.214573    2.714925
   -0.214573    0.214573    0.214574    2.714925
    0.214573   -0.214574   -0.214573    2.714925
   -0.214573   -0.214573   -0.214573    2.714925
    0.214573    0.214573   -0.214573    2.714925
    0.214573   -0.214573    0.214573    2.714925
   -0.214573    0.214573   -0.214573    2.714925
    0.214573    0.214573    0.214573    2.714925
   -0.214573   -0.214573    0.214573    2.714925
   -0.214573    0.214573    0.214573    2.714925
    0.214573   -0.214573   -0.214573    2.714925
   -0.214573   -0.214573   -0.214573    2.714925
    0.214573    0.214573   -0.214573    2.714925
    0.214573   -0.214573    0.214573    2.714925
   -0.214573    0.214573   -0.214573    2.714925
    0.214573    0.214573    0.214573    2.714925
   -0.214573   -0.214573    0.214573    2.714925
   -0.214573    0.214573    0.214573    2.714925
    0.214573   -0.214574   -0.214573    2.714925
   -0.214573   -0.214573   -0.214573    2.714925
    0.214573    0.214573   -0.214573    2.714925
    0.214573   -0.214573    0.214573    2.714925
   -0.214573    0.214573   -0.214573    2.714925
    0.214573    0.214573    0.214573    2.714925
   -0.214573   -0.214573    0.214573    2.714925
   -0.214573    0.214573    0.214574    2.714925
    0.214573   -0.214574   -0.214573    2.714925
   -0.214573   -0.214573   -0.214573    2.714925
    0.214573    0.214573   -0.214573    2.714925
    0.214573   -0.214573    0.214573    2.714925
    0.214573    0.214573    0.214573    2.714925
   -0.214573   -0.214573    0.214573    2.714925
   -0.214573    0.214573   -0.214573    2.714925
   -0.214573    0.214573    0.214573    2.714925
    0.214573   -0.214573   -0.214573    2.714925
   -0.214573   -0.214573   -0.214573    2.714925
    0.214573    0.214573   -0.214573    2.714925
   -0.214573   -0.214573   -0.214573    2.714925
   -0.214573    0.214573   -0.214573    2.714925
    0.214573    0.214573    0.214573    2.714925
   -0.214573   -0.214573    0.214573    2.714925
   -0.214574    0.214573    0.214573    2.714925
    0.214573   -0.214574   -0.214573    2.714925
    0.214573   -0.214573    0.214573    2.714925
    0.214573   -0.214574   -0.214573    2.714925
    0.214573    0.214573   -0.214573    2.714925
   -0.214573   -0.214573   -0.214573    2.714925
    0.214573   -0.214573    0.214573    2.714925
   -0.214573    0.214573   -0.214573    2.714925
    0.214573    0.214573    0.214573    2.714925
   -0.214573   -0.214573    0.214573    2.714925
   -0.214573    0.214573    0.214573    2.714925
    0.214573   -0.214573   -0.214573    2.714925
    0.214573    0.214573   -0.214573    2.714925
   -0.214573   -0.214573   -0.214573    2.714925
    0.214573   -0.214573    0.214573    2.714925
   -0.214573    0.214573   -0.214573    2.714925
    0.214573    0.214573    0.214573    2.714925
   -0.214573   -0.214573    0.214573    2.714925
   -0.214574    0.214573    0.214573    2.714925
    0.214573   -0.214574   -0.214573    2.714925
    0.214573    0.214573   -0.214573    2.714925
   -0.214573   -0.214573   -0.214573    2.714925
    0.214573   -0.214573    0.214573    2.714925
   -0.214573    0.214573   -0.214573    2.714925
    0.214573    0.214573    0.214573    2.714925
   -0.214573   -0.214573    0.214573    2.714925
   -0.214574    0.214573    0.214573    2.714925
    0.214573   -0.214574   -0.214573    2.714925
    0.214573    0.214573   -0.214573    2.714925
   -0.214573   -0.214573   -0.214573    2.714925
    0.214573   -0.214573    0.214573    2.714925
   -0.214573    0.214573   -0.214573    2.714925
    0.214573    0.214573    0.214573    2.714925
   -0.214573   -0.214573    0.214573    2.714925
   -0.214573    0.214573    0.214573    2.714925
    0.214573   -0.214573   -0.214573    2.714925
    0.214573    0.214573   -0.214573    2.714925
   -0.214573   -0.214573   -0.214573    2.714925
    0.214573   -0.214573    0.214573    2.714925
    0.214573    0.214573    0.214573    2.714925
   -0.214573   -0.214573    0.214573    2.714925
   -0.214573    0.214573   -0.214573    2.714925
   -0.214574    0.214573    0.214573    2.714925
    0.214573    0.214573   -0.214573    2.714925
   -0.214573   -0.214573   -0.214573    2.714925
   -0.214573    0.214573   -0.214573    2.714925
    0.214573    0.214573    0.214573    2.714925
   -0.214573   -0.214573    0.214573    2.714925
   -0.214573    0.214573    0.214573    2.714925
    0.214573   -0.214573   -0.214573    2.714925
    0.214573   -0.214573    0.214573    2.714925
    0.214573   -0.214573   -0.214573    2.714925
    0.214573    0.214573   -0.214573    2.714925
   -0.214573   -0.214573   -0.214573    2.714925
    0.214573   -0.214573    0.214573    2.714925
   -0.214573    0.214573   -0.214573    2.714925
    0.214573    0.214573    0.214573    2.714925
   -0.214573   -0.214573    0.214573    2.714925
   -0.214573    0.214573    0.214574    2.714925
    0.214573   -0.214573   -0.214573    2.714925
    0.214573    0.214573   -0.214573    2.714925
   -0.214573   -0.214573   -0.214573    2.714925
    0.214573   -0.214573    0.214573    2.714925
   -0.214573    0.214573   -0.214573    2.714925
    0.214573    0.214573    0.214573    2.714925
   -0.214573   -0.214573    0.214573    2.714925
   -0.214573    0.214573    0.214573    2.714925
    0.214573   -0.214573   -0.214573    2.714925
    0.214573    0.214573   -0.214573    2.714925
   -0.214573   -0.214573   -0.214573    2.714925
    0.214573   -0.214573    0.214573    2.714925
   -0.214573    0.214573   -0.214573    2.714925
    0.214573    0.214573    0.214573    2.714925
   -0.214573   -0.214573    0.214573    2.714925
   -0.214573    0.214573    0.214573    2.714925
    0.214573   -0.214573   -0.214573    2.714925
    0.214573    0.214573   -0.214573    2.714925
   -0.214573   -0.214573   -0.214573    2.714925
    0.214573   -0.214573    0.214573    2.714925
   -0.214573    0.214573   -0.214573    2.714925
    0.214573    0.214573    0.214573    2.714925
   -0.214573   -0.214573    0.214573    2.714925
   -0.214573    0.214573    0.214574    2.714925
    0.214573   -0.214573   -0.214573    2.714925
    0.214573    0.214573   -0.214573    2.714925
   -0.214573   -0.214573   -0.214573    2.714925
    0.214573   -0.214573    0.214573    2.714925
    0.214573    0.214573    0.214573    2.714925
   -0.214573   -0.214573    0.214573    2.714925
   -0.214573    0.214573   -0.214573    2.714925
   -0.214573    0.214573    0.214573    2.714925
    0.214573    0.214573   -0.214573    2.714925
   -0.214573   -0.214573   -0.214573    2.714925
   -0.214573    0.214573   -0.214573    2.714925
    0.214573    0.214573    0.214573    2.714925
   -0.214573   -0.214573    0.214573    2.714925
   -0.214573    0.214573    0.214573    2.714925
    0.214573   -0.214574   -0.214573    2.714925
    0.214573   -0.214573    0.214573    2.714925
    0.214573   -0.214574   -0.214573    2.714925
    0.214573    0.214573   -0.214573    2.714925
   -0.214573   -0.214573   -0.214573    2.714925
    0.214573   -0.214573    0.214573    2.714925
   -0.214573    0.214573   -0.214573    2.714925
    0.214573    0.214573    0.214573    2.714925
   -0.214573   -0.214573    0.214573    2.714925
   -0.214573    0.214573    0.214574    2.714925
    0.214573   -0.214573   -0.214573    2.714925
    0.214573    0.214573   -0.214573    2.714925
   -0.214573   -0.214573   -0.214573    2.714925
    0.214573   -0.214573    0.214573    2.714925
   -0.214573    0.214573   -0.214573    2.714925
    0.214573    0.214573    0.214573    2.714925
   -0.214573   -0.214573    0.214573    2.714925
   -0.214573    0.214573    0.214573    2.714925
    0.214573   -0.214574   -0.214573    2.714925
    0.214573    0.214573   -0.214573    2.714925
   -0.214573   -0.214573   -0.214573    2.714925
    0.214573   -0.214573    0.214573    2.714925
   -0.214573    0.214573   -0.214573    2.714925
    0.214573    0.214573    0.214573    2.714925
   -0.214573   -0.214573    0.214573    2.714925
   -0.214573    0.214573    0.214573    2.714925
    0.214573   -0.214574   -0.214573    2.714925
    0.214573    0.214573   -0.214573    2.714925
   -0.214573   -0.214573   -0.214573    2.714925
    0.214573   -0.214573    0.214573    2.714925
   -0.214573    0.214573   -0.214573    2.714925
    0.214573    0.214573    0.214573    2.714925
   -0.214573   -0.214573    0.214573    2.714925
   -0.214573    0.214573    0.214574    2.714925
    0.214573   -0.214573   -0.214573    2.714925
    0.214573    0.214573   -0.214573    2.714925
   -0.214573   -0.214573   -0.214573    2.714925
    0.214573   -0.214573    0.214573    2.714925
    0.214573    0.214573    0.214573    2.714925
   -0.214573   -0.214573    0.214573    2.714925
   -0.214573    0.214573   -0.214573    2.714925
   -0.214573    0.214573    0.214573    2.714925
    0.214573    0.214573   -0.214573    2.714925
   -0.214573   -0.214573   -0.214573    2.714925
   -0.214573    0.214573   -0.214573    2.714925
    0.214573    0.214573    0.214573    2.714925
   -0.214573   -0.214573    0.214573    2.714925
   -0.214574    0.214573    0.214573    2.714925
    0.214573   -0.214574   -0.214573    2.714925
    0.214573   -0.214573    0.214573    2.714925
    0.214573   -0.214574   -0.214573    2.714925
    0.214573    0.214573   -0.214573    2.714925
   -0.214573   -0.214573   -0.214573    2.714925
    0.214573   -0.214573    0.214573    2.714925
   -0.214573    0.214573   -0.214573    2.714925
    0.214573    0.214573    0.214573    2.714925
   -0.214573   -0.214573    0.214573    2.714925
   -0.214573    0.214573    0.214573    2.714925
    0.214573   -0.214573   -0.214573    2.714925
    0.214573    0.214573   -0.214573    2.714925
   -0.214573   -0.214573   -0.214573    2.714925
    0.214573   -0.214573    0.214573    2.714925
   -0.214573    0.214573   -0.214573    2.714925
    0.214573    0.214573    0.214573    2.714925
   -0.214573   -0.214573    0.214573    2.714925
   -0.214574    0.214573    0.214573    2.714925
    0.214573   -0.214574   -0.214573    2.714925
    0.214573    0.214573   -0.214573    2.714925
   -0.214573   -0.214573   -0.214573    2.714925
    0.214573   -0.214573    0.214573    2.714925
   -0.214573    0.214573   -0.214573    2.714925
    0.214573    0.214573    0.214573    2.714925
   -0.214573   -0.214573    0.214573    2.714925
   -0.214574    0.214573    0.214573    2.714925
    0.214573   -0.214574   -0.214573    2.714925
    0.214573    0.214573   -0.214573    2.714925
   -0.214573   -0.214573   -0.214573    2.714925
    0.214573   -0.214573    0.214573    2.714925
   -0.214573    0.214573   -0.214573    2.714925
    0.214573    0.214573    0.214573    2.714925
   -0.214573   -0.214573    0.214573    2.714925
   -0.214573    0.214573    0.214573    2.714925
    0.214573   -0.214573   -0.214573    2.714925
    0.214573    0.214573   -0.214573    2.714925
   -0.214573   -0.214573   -0.214573    2.714925
    0.214573   -0.214573    0.214573    2.714925
    0.214573    0.214573    0.214573    2.714925
   -0.214573   -0.214573    0.214573    2.714925
   -0.214573    0.214573   -0.214573    2.714925
   -0.214574    0.214573    0.214573    2.714925
    0.214573    0.214573   -0.214573    2.714925
   -0.214573   -0.214573   -0.214573    2.714925
   -0.214573    0.214573   -0.214573    2.714925
   -0.214573   -0.214573    0.214573    2.714925
    0.214573    0.214573    0.214573    2.714925
   -0.214573    0.214573    0.214573    2.714925
    0.214573   -0.214573   -0.214573    2.714925
    0.214573   -0.214573    0.214573    2.714925
    0.214573   -0.214573   -0.214573    2.714925
    0.214573    0.214573   -0.214573    2.714925
   -0.214573   -0.214573   -0.214573    2.714925
    0.214573   -0.214573    0.214573    2.714925
   -0.214573    0.214573   -0.214573    2.714925
   -0.214573   -0.214573    0.214573    2.714925
    0.214573    0.214573    0.214573    2.714925
   -0.214573    0.214573    0.214574    2.714925
    0.214573   -0.214573   -0.214573    2.714925
    0.214573    0.214573   -0.214573    2.714925
   -0.214573   -0.214573   -0.214573    2.714925
    0.214573   -0.214573    0.214573    2.714925
   -0.214573    0.214573   -0.214573    2.714925
   -0.214573   -0.214573    0.214573    2.714925
    0.214573    0.214573    0.214573    2.714925
   -0.214573    0.214573    0.214573    2.714925
    0.214573   -0.214573   -0.214573    2.714925
    0.214573    0.214573   -0.214573    2.714925
   -0.214573   -0.214573   -0.214573    2.714925
    0.214573   -0.214573    0.214573    2.714925
   -0.214573    0.214573   -0.214573    2.714925
   -0.214573   -0.214573    0.214573    2.714925
    0.214573    0.214573    0.214573    2.714925
   -0.214573    0.214573    0.214573    2.714925
    0.214573   -0.214573   -0.214573    2.714925
    0.214573    0.214573   -0.214573    2.714925
   -0.214573   -0.214573   -0.214573    2.714925
    0.214573   -0.214573    0.214573    2.714925
   -0.214573    0.214573   -0.214573    2.714925
   -0.214573   -0.214573    0.214573    2.714925
    0.214573    0.214573    0.214573    2.714925
   -0.214573    0.214573    0.214574    2.714925
    0.214573   -0.214573   -0.214573    2.714925
    0.214573    0.214573   -0.214573    2.714925
   -0.214573   -0.214573   -0.214573    2.714925
    0.214573   -0.214573    0.214573    2.714925
   -0.214573   -0.214573    0.214573    2.714925
    0.214573    0.214573    0.214573    2.714925
   -0.214573    0.214573   -0.214573    2.714925
   -0.214573    0.214573    0.214573    2.714925
    0.214573    0.214573   -0.214573    2.714925
   -0.214573    0.214573   -0.214573    2.714925
    0.214573    0.214573    0.214573    2.714925
   -0.214573   -0.214573    0.214573    2.714925
   -0.214573    0.214573    0.214573    2.714925
    0.214573   -0.214573    0.214573    2.714925
   -0.214573   -0.214573   -0.214573    2.714925
    0.214573   -0.214573   -0.214573    2.714925
    0.214573    0.214573   -0.214573    2.714925
    0.214573   -0.214573    0.214573    2.714925
   -0.214573    0.214573   -0.214573    2.714925
    0.214573    0.214573    0.214573    2.714925
   -0.214573   -0.214573    0.214573    2.714925
   -0.214573    0.214573    0.214574    2.714925
    0.214573   -0.214573   -0.214573    2.714925
   -0.214573   -0.214573   -0.214573    2.714925
    0.214573    0.214573   -0.214573    2.714925
    0.214573   -0.214573    0.214573    2.714925
   -0.214573    0.214573   -0.214573    2.714925
    0.214573    0.214573    0.214573    2.714925
   -0.214573   -0.214573    0.214573    2.714925
   -0.214573    0.214573    0.214573    2.714925
    0.214573   -0.214573   -0.214574    2.714925
   -0.214573   -0.214573   -0.214573    2.714925
    0.214573    0.214573   -0.214573    2.714925
    0.214573   -0.214573    0.214573    2.714925
   -0.214573    0.214573   -0.214573    2.714925
    0.214573    0.214573    0.214573    2.714925
   -0.214573   -0.214573    0.214573    2.714925
   -0.214573    0.214573    0.214573    2.714925
    0.214573   -0.214573   -0.214573    2.714925
   -0.214573   -0.214573   -0.214573    2.714925
    0.214573    0.214573   -0.214573    2.714925
    0.214573   -0.214573    0.214573    2.714925
   -0.214573    0.214573   -0.214573    2.714925
    0.214573    0.214573    0.214573    2.714925
   -0.214573   -0.214573    0.214573    2.714925
   -0.214573    0.214573    0.214574    2.714925
    0.214573   -0.214573   -0.214573    2.714925
   -0.214573   -0.214573   -0.214573    2.714925
    0.214573    0.214573   -0.214573    2.714925
    0.214573   -0.214573    0.214573    2.714925
    0.214573    0.214573    0.214573    2.714925
   -0.214573   -0.214573    0.214573    2.714925
   -0.214573    0.214573   -0.214573    2.714925
   -0.214573    0.214573    0.214573    2.714925
    0.214573   -0.214573   -0.214574    2.714925
   -0.214573   -0.214573   -0.214573    2.714925
    0.214573    0.214573   -0.214573    2.714925
   -0.214573   -0.214573   -0.214573    2.714925
   -0.214573    0.214573   -0.214573    2.714925
    0.214573    0.214573    0.214573    2.714925
   -0.214573   -0.214573    0.214573    2.714925
   -0.214574    0.214573    0.214573    2.714925
    0.214573   -0.214573   -0.214573    2.714925
    0.214573   -0.214573    0.214573    2.714925
    0.214573   -0.214573   -0.214573    2.714925
    0.214573    0.214573   -0.214573    2.714925
   -0.214573   -0.214573   -0.214573    2.714925
    0.214573   -0.214573    0.214573    2.714925
   -0.214573    0.214573   -0.214573    2.714925
    0.214573    0.214573    0.214573    2.714925
   -0.214573   -0.214573    0.214573    2.714925
   -0.214573    0.214573    0.214573    2.714925
    0.214573   -0.214573   -0.214574    2.714925
    0.214573    0.214573   -0.214573    2.714925
   -0.214573   -0.214573   -0.214573    2.714925
    0.214573   -0.214573    0.214573    2.714925
   -0.214573    0.214573   -0.214573    2.714925
    0.214573    0.214573    0.214573    2.714925
   -0.214573   -0.214573    0.214573    2.714925
   -0.214574    0.214573    0.214573    2.714925
    0.214573   -0.214573   -0.214573    2.714925
    0.214573    0.214573   -0.214573    2.714925
   -0.214573   -0.214573   -0.214573    2.714925
    0.214573   -0.214573    0.214573    2.714925
   -0.214573    0.214573   -0.214573    2.714925
    0.214573    0.214573    0.214573    2.714925
   -0.214573   -0.214573    0.214573    2.714925
   -0.214574    0.214573    0.214573    2.714925
    0.214573   -0.214573   -0.214573    2.714925
    0.214573    0.214573   -0.214573    2.714925
   -0.214573   -0.214573   -0.214573    2.714925
    0.214573   -0.214573    0.214573    2.714925
   -0.214573    0.214573   -0.214573    2.714925
    0.214573    0.214573    0.214573    2.714925
   -0.214573   -0.214573    0.214573    2.714925
   -0.214573    0.214573    0.214573    2.714925
    0.214573   -0.214573   -0.214574    2.714925
    0.214573    0.214573   -0.214573    2.714925
   -0.214573   -0.214573   -0.214573    2.714925
    0.214573   -0.214573    0.214573    2.714925
    0.214573    0.214573    0.214573    2.714925
   -0.214573   -0.214573    0.214573    2.714925
   -0.214573    0.214573   -0.214573    2.714925
   -0.214574    0.214573    0.214573    2.714925
    0.214573    0.214573   -0.214573    2.714925
   -0.214573   -0.214573   -0.214573    2.714925
   -0.214573    0.214573   -0.214573    2.714925
    0.214573    0.214573    0.214573    2.714925
   -0.214573   -0.214573    0.214573    2.714925
   -0.214573    0.214573    0.214573    2.714925
    0.214574   -0.214573   -0.214573    2.714925
    0.214573   -0.214573    0.214573    2.714925
    0.214574   -0.214573   -0.214573    2.714925
    0.214573    0.214573   -0.214573    2.714925
   -0.214573   -0.214573   -0.214573    2.714925
    0.214573   -0.214573    0.214573    2.714925
   -0.214573    0.214573   -0.214573    2.714925
    0.214573    0.214573    0.214573    2.714925
   -0.214573   -0.214573    0.214573    2.714925
   -0.214573    0.214573    0.214574    2.714925
    0.214573   -0.214573   -0.214573    2.714925
    0.214573    0.214573   -0.214573    2.714925
   -0.214573   -0.214573   -0.214573    2.714925
    0.214573   -0.214573    0.214573    2.714925
   -0.214573    0.214573   -0.214573    2.714925
    0.214573    0.214573    0.214573    2.714925
   -0.214573   -0.214573    0.214573    2.714925
   -0.214573    0.214573    0.214573    2.714925
    0.214574   -0.214573   -0.214573    2.714925
    0.214573    0.214573   -0.214573    2.714925
   -0.214573   -0.214573   -0.214573    2.714925
    0.214573   -0.214573    0.214573    2.714925
   -0.214573    0.214573   -0.214573    2.714925
    0.214573    0.214573    0.214573    2.714925
   -0.214573   -0.214573    0.214573    2.714925
   -0.214573    0.214573    0.214573    2.714925
    0.214574   -0.214573   -0.214573    2.714925
    0.214573    0.214573   -0.214573    2.714925
   -0.214573   -0.214573   -0.214573    2.714925
    0.214573   -0.214573    0.214573    2.714925
   -0.214573    0.214573   -0.214573    2.714925
    0.214573    0.214573    0.214573    2.714925
   -0.214573   -0.214573    0.214573    2.714925
   -0.214573    0.214573    0.214574    2.714925
    0.214573   -0.214573   -0.214573    2.714925
    0.214573    0.214573   -0.214573    2.714925
   -0.214573   -0.214573   -0.214573    2.714925
    0.214573   -0.214573    0.214573    2.714925
    0.214573    0.214573    0.214573    2.714925
   -0.214573   -0.214573    0.214573    2.714925
   -0.214573    0.214573   -0.214573    2.714925
   -0.214573    0.214573    0.214573    2.714925
    0.214573    0.214573   -0.214573    2.714925
   -0.214573   -0.214573   -0.214573    2.714925
   -0.214573    0.214573   -0.214573    2.714925
    0.214573    0.214573    0.214573    2.714925
   -0.214573   -0.214573    0.214573    2.714925
   -0.214573    0.214573    0.214573    2.714925
    0.214573   -0.214573   -0.214573    2.714925
    0.214573   -0.214573    0.214573    2.714925
    0.214573   -0.214573   -0.214573    2.714925
    0.214573    0.214573   -0.214573    2.714925
   -0.214573   -0.214573   -0.214573    2.714925
    0.214573   -0.214573    0.214573    2.714925
   -0.214573    0.214573   -0.214573    2.714925
    0.214573    0.214573    0.214573    2.714925
   -0.214573   -0.214573    0.214573    2.714925
   -0.214573    0.214573    0.214574    2.714925
    0.214573   -0.214573   -0.214574    2.714925
    0.214573    0.214573   -0.214573    2.714925
   -0.214573   -0.214573   -0.214573    2.714925
    0.214573   -0.214573    0.214573    2.714925
   -0.214573    0.214573   -0.214573    2.714925
    0.214573    0.214573    0.214573    2.714925
   -0.214573   -0.214573    0.214573    2.714925
   -0.214573    0.214573    0.214573    2.714925
    0.214573   -0.214573   -0.214573    2.714925
    0.214573    0.214573   -0.214573    2.714925
   -0.214573   -0.214573   -0.214573    2.714925
    0.214573   -0.214573    0.214573    2.714925
   -0.214573    0.214573   -0.214573    2.714925
    0.214573    0.214573    0.214573    2.714925
   -0.214573   -0.214573    0.214573    2.714925
   -0.214573    0.214573    0.214573    2.714925
    0.214573   -0.214573   -0.214573    2.714925
    0.214573    0.214573   -0.214573    2.714925
   -0.214573   -0.214573   -0.214573    2.714925
    0.214573   -0.214573    0.214573    2.714925
   -0.214573    0.214573   -0.214573    2.714925
    0.214573    0.214573    0.214573    2.714925
   -0.214573   -0.214573    0.214573    2.714925
   -0.214573    0.214573    0.214574    2.714925
    0.214573   -0.214573   -0.214574    2.714925
    0.214573    0.214573   -0.214573    2.714925
   -0.214573   -0.214573   -0.214573    2.714925
    0.214573   -0.214573    0.214573    2.714925
    0.214573    0.214573    0.214573    2.714925
   -0.214573   -0.214573    0.214573    2.714925
   -0.214573    0.214573   -0.214573    2.714925
   -0.214573    0.214573    0.214573    2.714925
    0.214573    0.214573   -0.214573    2.714925
   -0.214573   -0.214573   -0.214573    2.714925
   -0.214573    0.214573   -0.214573    2.714925
    0.214573    0.214573    0.214573    2.714925
   -0.214573   -0.214573    0.214573    2.714925
   -0.214574    0.214573    0.214573    2.714925
    0.214573   -0.214573   -0.214573    2.714925
    0.214573   -0.214573    0.214573    2.714925
    0.214573   -0.214573   -0.214573    2.714925
    0.214573    0.214573   -0.214573    2.714925
   -0.214573   -0.214573   -0.214573    2.714925
    0.214573   -0.214573    0.214573    2.714925
   -0.214573    0.214573   -0.214573    2.714925
    0.214573    0.214573    0.214573    2.714925
   -0.214573   -0.214573    0.214573    2.714925
   -0.214573    0.214573    0.214573    2.714925
    0.214573   -0.214573   -0.214574    2.714925
    0.214573    0.214573   -0.214573    2.714925
   -0.214573   -0.214573   -0.214573    2.714925
    0.214573   -0.214573    0.214573    2.714925
   -0.214573    0.214573   -0.214573    2.714925
    0.214573    0.214573    0.214573    2.714925
   -0.214573   -0.214573    0.214573    2.714925
   -0.214574    0.214573    0.214573    2.714925
    0.214573   -0.214573   -0.214573    2.714925
    0.214573    0.214573   -0.214573    2.714925
   -0.214573   -0.214573   -0.214573    2.714925
    0.214573   -0.214573    0.214573    2.714925
   -0.214573    0.214573   -0.214573    2.714925
    0.214573    0.214573    0.214573    2.714925
   -0.214573   -0.214573    0.214573    2.714925
   -0.214574    0.214573    0.214573    2.714925
    0.214573   -0.214573   -0.214573    2.714925
    0.214573    0.214573   -0.214573    2.714925
   -0.214573   -0.214573   -0.214573    2.714925
    0.214573   -0.214573    0.214573    2.714925
   -0.214573    0.214573   -0.214573    2.714925
    0.214573    0.214573    0.214573    2.714925
   -0.214573   -0.214573    0.214573    2.714925
   -0.214573    0.214573    0.214573    2.714925
    0.214573   -0.214573   -0.214574    2.714925
    0.214573    0.214573   -0.214573    2.714925
   -0.214573   -0.214573   -0.214573    2.714925
    0.214573   -0.214573    0.214573    2.714925
    0.214573    0.214573    0.214573    2.714925
   -0.214573   -0.214573    0.214573    2.714925
   -0.214573    0.214573   -0.214573    2.714925
   -0.214574    0.214573    0.214573    2.714925
    0.214573    0.214573   -0.214573    2.714925
   -0.214573   -0.214573   -0.214573    2.714925
   -0.214573    0.214573   -0.214573    2.714925
   -0.214573   -0.214573    0.214573    2.714925
    0.214573    0.214573    0.214573    2.714925
   -0.214573    0.214573    0.214573    2.714925
    0.214574   -0.214573   -0.214573    2.714925
    0.214573   -0.214573    0.214573    2.714925
    0.214574   -0.214573   -0.214573    2.714925
    0.214573    0.214573   -0.214573    2.714925
   -0.214573   -0.214573   -0.214573    2.714925
    0.214573   -0.214573    0.214573    2.714925
   -0.214573    0.214573   -0.214573    2.714925
   -0.214573   -0.214573    0.214573    2.714925
    0.214573    0.214573    0.214573    2.714925
   -0.214573    0.214573    0.214574    2.714925
    0.214573   -0.214573   -0.214573    2.714925
    0.214573    0.214573   -0.214573    2.714925
   -0.214573   -0.214573   -0.214573    2.714925
    0.214573   -0.214573    0.214573    2.714925
   -0.214573    0.214573   -0.214573    2.714925
   -0.214573   -0.214573    0.214573    2.714925
    0.214573    0.214573    0.214573    2.714925
   -0.214573    0.214573    0.214573    2.714925
    0.214574   -0.214573   -0.214573    2.714925
    0.214573    0.214573   -0.214573    2.714925
   -0.214573   -0.214573   -0.214573    2.714925
    0.214573   -0.214573    0.214573    2.714925
   -0.214573    0.214573   -0.214573    2.714925
   -0.214573   -0.214573    0.214573    2.714925
    0.214573    0.214573    0.214573    2.714925
   -0.214573    0.214573    0.214573    2.714925
    0.214574   -0.214573   -0.214573    2.714925
    0.214573    0.214573   -0.214573    2.714925
   -0.214573   -0.214573   -0.214573    2.714925
    0.214573   -0.214573    0.214573    2.714925
   -0.214573    0.214573   -0.214573    2.714925
   -0.214573   -0.214573    0.214573    2.714925
    0.214573    0.214573    0.214573    2.714925
   -0.214573    0.214573    0.214574    2.714925
    0.214573   -0.214573   -0.214573    2.714925
    0.214573    0.214573   -0.214573    2.714925
   -0.214573   -0.214573   -0.214573    2.714925
    0.214573   -0.214573    0.214573    2.714925
   -0.214573   -0.214573    0.214573    2.714925
    0.214573    0.214573    0.214573    2.714925
   -0.214573    0.214573   -0.214573    2.714925
   -0.214573    0.214573    0.214573    2.714925
    0.214573    0.214573   -0.214573    2.714925
   -0.214573    0.214573   -0.214573    2.714925
    0.214573    0.214573    0.214573    2.714925
   -0.214573   -0.214573    0.214573    2.714925
   -0.214573    0.214574    0.214573    2.714925
    0.214573   -0.214573    0.214573    2.714925
   -0.214573   -0.214573   -0.214573    2.714925
    0.214573   -0.214573   -0.214573    2.714925
    0.214573    0.214573   -0.214573    2.714925
    0.214573   -0.214573    0.214573    2.714925
   -0.214573    0.214573   -0.214573    2.714925
    0.214573    0.214573    0.214573    2.714925
   -0.214573   -0.214573    0.214573    2.714925
   -0.214573    0.214573    0.214573    2.714925
    0.214573   -0.214573   -0.214573    2.714925
   -0.214573   -0.214573   -0.214573    2.714925
    0.214573    0.214573   -0.214573    2.714925
    0.214573   -0.214573    0.214573    2.714925
   -0.214573    0.214573   -0.214573    2.714925
    0.214573    0.214573    0.214573    2.714925
   -0.214573   -0.214573    0.214573    2.714925
   -0.214573    0.214574    0.214573    2.714925
    0.214573   -0.214573   -0.214574    2.714925
   -0.214573   -0.214573   -0.214573    2.714925
    0.214573    0.214573   -0.214573    2.714925
    0.214573   -0.214573    0.214573    2.714925
   -0.214573    0.214573   -0.214573    2.714925
    0.214573    0.214573    0.214573    2.714925
   -0.214573   -0.214573    0.214573    2.714925
   -0.214573    0.214574    0.214573    2.714925
    0.214573   -0.214573   -0.214573    2.714925
   -0.214573   -0.214573   -0.214573    2.714925
    0.214573    0.214573   -0.214573    2.714925
    0.214573   -0.214573    0.214573    2.714925
   -0.214573    0.214573   -0.214573    2.714925
    0.214573    0.214573    0.214573    2.714925
   -0.214573   -0.214573    0.214573    2.714925
   -0.214573    0.214573    0.214573    2.714925
    0.214573   -0.214573   -0.214573    2.714925
   -0.214573   -0.214573   -0.214573    2.714925
    0.214573    0.214573   -0.214573    2.714925
    0.214573   -0.214573    0.214573    2.714925
    0.214573    0.214573    0.214573    2.714925
   -0.214573   -0.214573    0.214573    2.714925
   -0.214573    0.214573   -0.214573    2.714925
   -0.214573    0.214574    0.214573    2.714925
    0.214573   -0.214573   -0.214574    2.714925
   -0.214573   -0.214573   -0.214573    2.714925
    0.214573    0.214573   -0.214573    2.714925
   -0.214573   -0.214573   -0.214573    2.714925
   -0.214573    0.214573   -0.214573    2.714925
    0.214573    0.214573    0.214573    2.714925
   -0.214573   -0.214573    0.214573    2.714925
   -0.214573    0.214573    0.214573    2.714925
    0.214573   -0.214573   -0.214573    2.714925
    0.214573   -0.214573    0.214573    2.714925
    0.214573   -0.214573   -0.214573    2.714925
    0.214573    0.214573   -0.214573    2.714925
   -0.214573   -0.214573   -0.214573    2.714925
    0.214573   -0.214573    0.214573    2.714925
   -0.214573    0.214573   -0.214573    2.714925
    0.214573    0.214573    0.214573    2.714925
   -0.214573   -0.214573    0.214573    2.714925
   -0.214573    0.214573    0.214573    2.714925
    0.214573   -0.214573   -0.214574    2.714925
    0.214573    0.214573   -0.214573    2.714925
   -0.214573   -0.214573   -0.214573    2.714925
    0.214573   -0.214573    0.214573    2.714925
   -0.214573    0.214573   -0.214573    2.714925
    0.214573    0.214573    0.214573    2.714925
   -0.214573   -0.214573    0.214573    2.714925
   -0.214573    0.214573    0.214573    2.714925
    0.214573   -0.214573   -0.214573    2.714925
    0.214573    0.214573   -0.214573    2.714925
   -0.214573   -0.214573   -0.214573    2.714925
    0.214573   -0.214573    0.214573    2.714925
   -0.214573    0.214573   -0.214573    2.714925
    0.214573    0.214573    0.214573    2.714925
   -0.214573   -0.214573    0.214573    2.714925
   -0.214573    0.214573    0.214573    2.714925
    0.214573   -0.214573   -0.214573    2.714925
    0.214573    0.214573   -0.214573    2.714925
   -0.214573   -0.214573   -0.214573    2.714925
    0.214573   -0.214573    0.214573    2.714925
   -0.214573    0.214573   -0.214573    2.714925
    0.214573    0.214573    0.214573    2.714925
   -0.214573   -0.214573    0.214573    2.714925
   -0.214573    0.214573    0.214573    2.714925
    0.214573   -0.214573   -0.214574    2.714925
    0.214573    0.214573   -0.214573    2.714925
   -0.214573   -0.214573   -0.214573    2.714925
    0.214573   -0.214573    0.214573    2.714925
    0.214573    0.214573    0.214573    2.714925
   -0.214573   -0.214573    0.214573    2.714925
   -0.214573    0.214573   -0.214573    2.714925
   -0.214573    0.214573    0.214573    2.714925
    0.214573    0.214573   -0.214573    2.714925
   -0.214573   -0.214573   -0.214573    2.714925
   -0.214573    0.214573   -0.214573    2.714925
    0.214573    0.214573    0.214573    2.714925
   -0.214573   -0.214573    0.214573    2.714925
   -0.214573    0.214574    0.214573    2.714925
    0.214574   -0.214573   -0.214573    2.714925
    0.214573   -0.214573    0.214573    2.714925
    0.214574   -0.214573   -0.214573    2.714925
    0.214573    0.214573   -0.214573    2.714925
   -0.214573   -0.214573   -0.214573    2.714925
    0.214573   -0.214573    0.214573    2.714925
   -0.214573    0.214573   -0.214573    2.714925
    0.214573    0.214573    0.214573    2.714925
   -0.214573   -0.214573    0.214573    2.714925
   -0.214573    0.214573    0.214573    2.714925
    0.214573   -0.214573   -0.214573    2.714925
    0.214573    0.214573   -0.214573    2.714925
   -0.214573   -0.214573   -0.214573    2.714925
    0.214573   -0.214573    0.214573    2.714925
   -0.214573    0.214573   -0.214573    2.714925
    0.214573    0.214573    0.214573    2.714925
   -0.214573   -0.214573    0.214573    2.714925
   -0.214573    0.214574    0.214573    2.714925
    0.214574   -0.214573   -0.214573    2.714925
    0.214573    0.214573   -0.214573    2.714925
   -0.214573   -0.214573   -0.214573    2.714925
    0.214573   -0.214573    0.214573    2.714925
   -0.214573    0.214573   -0.214573    2.714925
    0.214573    0.214573    0.214573    2.714925
   -0.214573   -0.214573    0.214573    2.714925
   -0.214573    0.214574    0.214573    2.714925
    0.214574   -0.214573   -0.214573    2.714925
    0.214573    0.214573   -0.214573    2.714925
   -0.214573   -0.214573   -0.214573    2.714925
    0.214573   -0.214573    0.214573    2.714925
   -0.214573    0.214573   -0.214573    2.714925
    0.214573    0.214573    0.214573    2.714925
   -0.214573   -0.214573    0.214573    2.714925
   -0.214573    0.214573    0.214573    2.714925
    0.214573   -0.214573   -0.214573    2.714925
    0.214573    0.214573   -0.214573    2.714925
   -0.214573   -0.214573   -0.214573    2.714925
    0.214573   -0.214573    0.214573    2.714925
    0.214573    0.214573    0.214573    2.714925
   -0.214573   -0.214573    0.214573    2.714925
   -0.214573    0.214573   -0.214573    2.714925
   -0.214573    0.214574    0.214573    2.714925
    0.214573    0.214573   -0.214573    2.714925
   -0.214573   -0.214573   -0.214573    2.714925
   -0.214573    0.214573   -0.214573    2.714925
    0.214573    0.214573    0.214573    2.714925
   -0.214573   -0.214573    0.214573    2.714925
   -0.214573    0.214574    0.214573    2.714925
    0.214573   -0.214573   -0.214573    2.714925
    0.214573   -0.214573    0.214573    2.714925
    0.214573   -0.214573   -0.214573    2.714925
    0.214573    0.214573   -0.214573    2.714925
   -0.214573   -0.214573   -0.214573    2.714925
    0.214573   -0.214573    0.214573    2.714925
   -0.214573    0.214573   -0.214573    2.714925
    0.214573    0.214573    0.214573    2.714925
   -0.214573   -0.214573    0.214573    2.714925
   -0.214573    0.214573    0.214573    2.714925
    0.214573   -0.214573   -0.214574    2.714925
    0.214573    0.214573   -0.214573    2.714925
   -0.214573   -0.214573   -0.214573    2.714925
    0.214573   -0.214573    0.214573    2.714925
   -0.214573    0.214573   -0.214573    2.714925
    0.214573    0.214573    0.214573    2.714925
   -0.214573   -0.214573    0.214573    2.714925
   -0.214573    0.214574    0.214573    2.714925
    0.214573   -0.214573   -0.214573    2.714925
    0.214573    0.214573   -0.214573    2.714925
   -0.214573   -0.214573   -0.214573    2.714925
    0.214573   -0.214573    0.214573    2.714925
   -0.214573    0.214573   -0.214573    2.714925
    0.214573    0.214573    0.214573    2.714925
   -0.214573   -0.214573    0.214573    2.714925
   -0.214573    0.214574    0.214573    2.714925
    0.214573   -0.214573   -0.214573    2.714925
    0.214573    0.214573   -0.214573    2.714925
   -0.214573   -0.214573   -0.214573    2.714925
    0.214573   -0.214573    0.214573    2.714925
   -0.214573    0.214573   -0.214573    2.714925
    0.214573    0.214573    0.214573    2.714925
   -0.214573   -0.214573    0.214573    2.714925
   -0.214573    0.214573    0.214573    2.714925
    0.214573   -0.214573   -0.214574    2.714925
    0.214573    0.214573   -0.214573    2.714925
   -0.214573   -0.214573   -0.214573    2.714925
    0.214573   -0.214573    0.214573    2.714925
    0.214573    0.214573    0.214573    2.714925
   -0.214573   -0.214573    0.214573    2.714925
   -0.214573    0.214573   -0.214573    2.714925
   -0.214573    0.214574    0.214573    2.714925
    0.214573    0.214573   -0.214573    2.714925
   -0.214573   -0.214573   -0.214573    2.714925
   -0.214573    0.214573   -0.214573    2.714925
    0.214573    0.214573    0.214573    2.714925
   -0.214573   -0.214573    0.214573    2.714925
   -0.214573    0.214573    0.214573    2.714925
    0.214573   -0.214573   -0.214573    2.714925
    0.214573   -0.214573    0.214573    2.714925
    0.214573   -0.214573   -0.214573    2.714925
    0.214573    0.214573   -0.214573    2.714925
   -0.214573   -0.214573   -0.214573    2.714925
    0.214573   -0.214573    0.214573    2.714925
   -0.214573    0.214573   -0.214573    2.714925
    0.214573    0.214573    0.214573    2.714925
   -0.214573   -0.214573    0.214573    2.714925
   -0.214573    0.214573    0.214573    2.714925
    0.214573   -0.214573   -0.214574    2.714925
    0.214573    0.214573   -0.214573    2.714925
   -0.214573   -0.214573   -0.214573    2.714925
    0.214573   -0.214573    0.214573    2.714925
   -0.214573    0.214573   -0.214573    2.714925
    0.214573    0.214573    0.214573    2.714925
   -0.214573   -0.214573    0.214573    2.714925
   -0.214573    0.214573    0.214573    2.714925
    0.214573   -0.214573   -0.214573    2.714925
    0.214573    0.214573   -0.214573    2.714925
   -0.214573   -0.214573   -0.214573    2.714925
    0.214573   -0.214573    0.214573    2.714925
   -0.214573    0.214573   -0.214573    2.714925
    0.214573    0.214573    0.214573    2.714925
   -0.214573   -0.214573    0.214573    2.714925
   -0.214573    0.214573    0.214573    2.714925
    0.214573   -0.214573   -0.214573    2.714925
    0.214573    0.214573   -0.214573    2.714925
   -0.214573   -0.214573   -0.214573    2.714925
    0.214573   -0.214573    0.214573    2.714925
   -0.214573    0.214573   -0.214573    2.714925
    0.214573    0.214573    0.214573    2.714925
   -0.214573   -0.214573    0.214573    2.714925
   -0.214573    0.214573    0.214573    2.714925
    0.214573   -0.214573   -0.214574    2.714925
    0.214573    0.214573   -0.214573    2.714925
   -0.214573   -0.214573   -0.214573    2.714925
    0.214573   -0.214573    0.214573    2.714925
    0.214573    0.214573    0.214573    2.714925
   -0.214573   -0.214573    0.214573    2.714925
   -0.214573    0.214573   -0.214573    2.714925
   -0.214573    0.214573    0.214573    2.714925
    0.214573    0.214573   -0.214573    2.714925
   -0.214573   -0.214573   -0.214573    2.714925
   -0.214573    0.214573   -0.214573    2.714925
   -0.214573   -0.214573    0.214573    2.714925
    0.214573    0.214573    0.214573    2.714925
   -0.214573    0.214574    0.214573    2.714925
    0.214574   -0.214573   -0.214573    2.714925
    0.214573   -0.214573    0.214573    2.714925
    0.214574   -0.214573   -0.214573    2.714925
    0.214573    0.214573   -0.214573    2.714925
   -0.214573   -0.214573   -0.214573    2.714925
    0.214573   -0.214573    0.214573    2.714925
   -0.214573    0.214573   -0.214573    2.714925
   -0.214573   -0.214573    0.214573    2.714925
    0.214573    0.214573    0.214573    2.714925
   -0.214573    0.214573    0.214573    2.714925
    0.214573   -0.214573   -0.214573    2.714925
    0.214573    0.214573   -0.214573    2.714925
   -0.214573   -0.214573   -0.214573    2.714925
    0.214573   -0.214573    0.214573    2.714925
   -0.214573    0.214573   -0.214573    2.714925
   -0.214573   -0.214573    0.214573    2.714925
    0.214573    0.214573    0.214573    2.714925
   -0.214573    0.214574    0.214573    2.714925
    0.214574   -0.214573   -0.214573    2.714925
    0.214573    0.214573   -0.214573    2.714925
   -0.214573   -0.214573   -0.214573    2.714925
    0.214573   -0.214573    0.214573    2.714925
   -0.214573    0.214573   -0.214573    2.714925
   -0.214573   -0.214573    0.214573    2.714925
    0.214573    0.214573    0.214573    2.714925
   -0.214573    0.214574    0.214573    2.714925
    0.214574   -0.214573   -0.214573    2.714925
    0.214573    0.214573   -0.214573    2.714925
   -0.214573   -0.214573   -0.214573    2.714925
    0.214573   -0.214573    0.214573    2.714925
   -0.214573    0.214573   -0.214573    2.714925
   -0.214573   -0.214573    0.214573    2.714925
    0.214573    0.214573    0.214573    2.714925
   -0.214573    0.214573    0.214573    2.714925
    0.214573   -0.214573   -0.214573    2.714925
    0.214573    0.214573   -0.214573    2.714925
   -0.214573   -0.214573   -0.214573    2.714925
    0.214573   -0.214573    0.214573    2.714925
   -0.214573   -0.214573    0.214573    2.714925
    0.214573    0.214573    0.214573    2.714925
   -0.214573    0.214573   -0.214573    2.714925
   -0.214573    0.214574    0.214573    2.714925
    0.214573    0.214573   -0.214573    2.714925
   -0.214573    0.214573   -0.214573    2.714925
    0.214573    0.214573    0.214573    2.714925
   -0.214573   -0.214573    0.214573    2.714925
   -0.214573    0.214573    0.214573    2.714925
    0.214573   -0.214573    0.214573    2.714925
   -0.214573   -0.214573   -0.214573    2.714925
    0.214573   -0.214574   -0.214573    2.714925
    0.214573    0.214573   -0.214573    2.714925
    0.214573   -0.214573    0.214573    2.714925
   -0.214573    0.214573   -0.214573    2.714925
    0.214573    0.214573    0.214573    2.714925
   -0.214573   -0.214573    0.214573    2.714925
   -0.214573    0.214573    0.214574    2.714925
    0.214573   -0.214574   -0.214573    2.714925
   -0.214573   -0.214573   -0.214573    2.714925
    0.214573    0.214573   -0.214573    2.714925
    0.214573   -0.214573    0.214573    2.714925
   -0.214573    0.214573   -0.214573    2.714925
    0.214573    0.214573    0.214573    2.714925
   -0.214573   -0.214573    0.214573    2.714925
   -0.214573    0.214573    0.214573    2.714925
    0.214573   -0.214573   -0.214573    2.714925
   -0.214573   -0.214573   -0.214573    2.714925
    0.214573    0.214573   -0.214573    2.714925
    0.214573   -0.214573    0.214573    2.714925
   -0.214573    0.214573   -0.214573    2.714925
    0.214573    0.214573    0.214573    2.714925
   -0.214573   -0.214573    0.214573    2.714925
   -0.214573    0.214573    0.214573    2.714925
    0.214573   -0.214574   -0.214573    2.714925
   -0.214573   -0.214573   -0.214573    2.714925
    0.214573    0.214573   -0.214573    2.714925
    0.214573   -0.214573    0.214573    2.714925
   -0.214573    0.214573   -0.214573    2.714925
    0.214573    0.214573    0.214573    2.714925
   -0.214573   -0.214573    0.214573    2.714925
   -0.214573    0.214573    0.214574    2.714925
    0.214573   -0.214574   -0.214573    2.714925
   -0.214573   -0.214573   -0.214573    2.714925
    0.214573    0.214573   -0.214573    2.714925
    0.214573   -0.214573    0.214573    2.714925
    0.214573    0.214573    0.214573    2.714925
   -0.214573   -0.214573    0.214573    2.714925
   -0.214573    0.214573   -0.214573    2.714925
    0.214573   -0.214573   -0.214573    2.714925
   -0.214573   -0.214573   -0.214573    2.714925
   -0.214573    0.214573    0.214573    2.714925
    0.214573    0.214573   -0.214573    2.714925
   -0.214573   -0.214573   -0.214573    2.714925
   -0.214573    0.214573   -0.214573    2.714925
    0.214573    0.214573    0.214573    2.714925
   -0.214573   -0.214573    0.214573    2.714925
   -0.214574    0.214573    0.214573    2.714925
    0.214573   -0.214574   -0.214573    2.714925
    0.214573   -0.214573    0.214573    2.714925
    0.214573   -0.214574   -0.214573    2.714925
    0.214573    0.214573   -0.214573    2.714925
   -0.214573   -0.214573   -0.214573    2.714925
    0.214573   -0.214573    0.214573    2.714925
   -0.214573    0.214573   -0.214573    2.714925
    0.214573    0.214573    0.214573    2.714925
   -0.214573   -0.214573    0.214573    2.714925
   -0.214573    0.214573    0.214573    2.714925
    0.214573   -0.214573   -0.214573    2.714925
    0.214573    0.214573   -0.214573    2.714925
   -0.214573   -0.214573   -0.214573    2.714925
    0.214573   -0.214573    0.214573    2.714925
   -0.214573    0.214573   -0.214573    2.714925
    0.214573    0.214573    0.214573    2.714925
   -0.214573   -0.214573    0.214573    2.714925
   -0.214574    0.214573    0.214573    2.714925
    0.214573   -0.214574   -0.214573    2.714925
    0.214573    0.214573   -0.214573    2.714925
   -0.214573   -0.214573   -0.214573    2.714925
    0.214573   -0.214573    0.214573    2.714925
   -0.214573    0.214573   -0.214573    2.714925
    0.214573    0.214573    0.214573    2.714925
   -0.214573   -0.214573    0.214573    2.714925
   -0.214574    0.214573    0.214573    2.714925
    0.214573   -0.214574   -0.214573    2.714925
    0.214573    0.214573   -0.214573    2.714925
   -0.214573   -0.214573   -0.214573    2.714925
    0.214573   -0.214573    0.214573    2.714925
   -0.214573    0.214573   -0.214573    2.714925
    0.214573    0.214573    0.214573    2.714925
   -0.214573   -0.214573    0.214573    2.714925
   -0.214573    0.214573    0.214573    2.714925
    0.214573   -0.214573   -0.214573    2.714925
    0.214573    0.214573   -0.214573    2.714925
   -0.214573   -0.214573   -0.214573    2.714925
    0.214573   -0.214573    0.214573    2.714925
    0.214573    0.214573    0.214573    2.714925
   -0.214573   -0.214573    0.214573    2.714925
   -0.214573    0.214573   -0.214573    2.714925
   -0.214574    0.214573    0.214573    2.714925
    0.214573    0.214573   -0.214573    2.714925
   -0.214573   -0.214573   -0.214573    2.714925
   -0.214573    0.214573   -0.214573    2.714925
    0.214573    0.214573    0.214573    2.714925
   -0.214573   -0.214573    0.214573    2.714925
   -0.214573    0.214573    0.214573    2.714925
    0.214573   -0.214573   -0.214573    2.714925
    0.214573   -0.214573    0.214573    2.714925
    0.214573   -0.214573   -0.214573    2.714925
    0.214573    0.214573   -0.214573    2.714925
   -0.214573   -0.214573   -0.214573    2.714925
    0.214573   -0.214573    0.214573    2.714925
   -0.214573    0.214573   -0.214573    2.714925
    0.214573    0.214573    0.214573    2.714925
   -0.214573   -0.214573    0.214573    2.714925
   -0.214573    0.214573    0.214574    2.714925
    0.214573   -0.214573   -0.214573    2.714925
    0.214573    0.214573   -0.214573    2.714925
   -0.214573   -0.214573   -0.214573    2.714925
    0.214573   -0.214573    0.214573    2.714925
   -0.214573    0.214573   -0.214573    2.714925
    0.214573    0.214573    0.214573    2.714925
   -0.214573   -0.214573    0.214573    2.714925
   -0.214573    0.214573    0.214573    2.714925
    0.214573   -0.214573   -0.214573    2.714925
    0.214573    0.214573   -0.214573    2.714925
   -0.214573   -0.214573   -0.214573    2.714925
    0.214573   -0.214573    0.214573    2.714925
   -0.214573    0.214573   -0.214573    2.714925
    0.214573    0.214573    0.214573    2.714925
   -0.214573   -0.214573    0.214573    2.714925
   -0.214573    0.214573    0.214573    2.714925
    0.214573   -0.214573   -0.214573    2.714925
    0.214573    0.214573   -0.214573    2.714925
   -0.214573   -0.214573   -0.214573    2.714925
    0.214573   -0.214573    0.214573    2.714925
   -0.214573    0.214573   -0.214573    2.714925
    0.214573    0.214573    0.214573    2.714925
   -0.214573   -0.214573    0.214573    2.714925
   -0.214573    0.214573    0.214574    2.714925
    0.214573   -0.214573   -0.214573    2.714925
    0.214573    0.214573   -0.214573    2.714925
   -0.214573   -0.214573   -0.214573    2.714925
    0.214573   -0.214573    0.214573    2.714925
    0.214573    0.214573    0.214573    2.714925
   -0.214573   -0.214573    0.214573    2.714925
   -0.214573    0.214573   -0.214573    2.714925
   -0.214573    0.214573    0.214573    2.714925
    0.214573    0.214573   -0.214573    2.714925
   -0.214573   -0.214573   -0.214573    2.714925
   -0.214573    0.214573   -0.214573    2.714925
    0.214573    0.214573    0.214573    2.714925
   -0.214573   -0.214573    0.214573    2.714925
   -0.214573    0.214573    0.214573    2.714925
    0.214573   -0.214574   -0.214573    2.714925
    0.214573   -0.214573    0.214573    2.714925
    0.214573   -0.214574   -0.214573    2.714925
    0.214573    0.214573   -0.214573    2.714925
   -0.214573   -0.214573   -0.214573    2.714925
    0.214573   -0.214573    0.214573    2.714925
   -0.214573    0.214573   -0.214573    2.714925
    0.214573    0.214573    0.214573    2.714925
   -0.214573   -0.214573    0.214573    2.714925
   -0.214573    0.214573    0.214574    2.714925
    0.214573   -0.214573   -0.214573    2.714925
    0.214573    0.214573   -0.214573    2.714925
   -0.214573   -0.214573   -0.214573    2.714925
    0.214573   -0.214573    0.214573    2.714925
   -0.214573    0.214573   -0.214573    2.714925
    0.214573    0.214573    0.214573    2.714925
   -0.214573   -0.214573    0.214573    2.714925
   -0.214573    0.214573    0.214573    2.714925
    0.214573   -0.214574   -0.214573    2.714925
    0.214573    0.214573   -0.214573    2.714925
   -0.214573   -0.214573   -0.214573    2.714925
    0.214573   -0.214573    0.214573    2.714925
   -0.214573    0.214573   -0.214573    2.714925
    0.214573    0.214573    0.214573    2.714925
   -0.214573   -0.214573    0.214573    2.714925
   -0.214573    0.214573    0.214573    2.714925
    0.214573   -0.214574   -0.214573    2.714925
    0.214573    0.214573   -0.214573    2.714925
   -0.214573   -0.214573   -0.214573    2.714925
    0.214573   -0.214573    0.214573    2.714925
   -0.214573    0.214573   -0.214573    2.714925
    0.214573    0.214573    0.214573    2.714925
   -0.214573   -0.214573    0.214573    2.714925
   -0.214573    0.214573    0.214574    2.714925
    0.214573   -0.214573   -0.214573    2.714925
    0.214573    0.214573   -0.214573    2.714925
   -0.214573   -0.214573   -0.214573    2.714925
    0.214573   -0.214573    0.214573    2.714925
    0.214573    0.214573    0.214573    2.714925
   -0.214573   -0.214573    0.214573    2.714925
   -0.214573    0.214573   -0.214573    2.714925
   -0.214573    0.214573    0.214573    2.714925
    0.214573    0.214573   -0.214573    2.714925
   -0.214573   -0.214573   -0.214573    2.714925
   -0.214573    0.214573   -0.214573    2.714925
    0.214573    0.214573    0.214573    2.714925
   -0.214573   -0.214573    0.214573    2.714925
   -0.214574    0.214573    0.214573    2.714925
    0.214573   -0.214574   -0.214573    2.714925
    0.214573   -0.214573    0.214573    2.714925
    0.214573   -0.214574   -0.214573    2.714925
    0.214573    0.214573   -0.214573    2.714925
   -0.214573   -0.214573   -0.214573    2.714925
    0.214573   -0.214573    0.214573    2.714925
   -0.214573    0.214573   -0.214573    2.714925
    0.214573    0.214573    0.214573    2.714925
   -0.214573   -0.214573    0.214573    2.714925
   -0.214573    0.214573    0.214573    2.714925
    0.214573   -0.214573   -0.214573    2.714925
    0.214573    0.214573   -0.214573    2.714925
   -0.214573   -0.214573   -0.214573    2.714925
    0.214573   -0.214573    0.214573    2.714925
   -0.214573    0.214573   -0.214573    2.714925
    0.214573    0.214573    0.214573    2.714925
   -0.214573   -0.214573    0.214573    2.714925
   -0.214574    0.214573    0.214573    2.714925
    0.214573   -0.214574   -0.214573    2.714925
    0.214573    0.214573   -0.214573    2.714925
   -0.214573   -0.214573   -0.214573    2.714925
    0.214573   -0.214573    0.214573    2.714925
   -0.214573    0.214573   -0.214573    2.714925
    0.214573    0.214573    0.214573    2.714925
   -0.214573   -0.214573    0.214573    2.714925
   -0.214574    0.214573    0.214573    2.714925
    0.214573   -0.214574   -0.214573    2.714925
    0.214573    0.214573   -0.214573    2.714925
   -0.214573   -0.214573   -0.214573    2.714925
    0.214573   -0.214573    0.214573    2.714925
   -0.214573    0.214573   -0.214573    2.714925
    0.214573    0.214573    0.214573    2.714925
   -0.214573   -0.214573    0.214573    2.714925
   -0.214573    0.214573    0.214573    2.714925
    0.214573   -0.214573   -0.214573    2.714925
    0.214573    0.214573   -0.214573    2.714925
   -0.214573   -0.214573   -0.214573    2.714925
    0.214573   -0.214573    0.214573    2.714925
    0.214573    0.214573    0.214573    2.714925
   -0.214573   -0.214573    0.214573    2.714925
   -0.214573    0.214573   -0.214573    2.714925
   -0.214574    0.214573    0.214573    2.714925
    0.214573    0.214573   -0.214573    2.714925
   -0.214573   -0.214573   -0.214573    2.714925
   -0.214573    0.214573   -0.214573    2.714925
   -0.214573   -0.214573    0.214573    2.714925
    0.214573    0.214573    0.214573    2.714925
    0.214573   -0.214573   -0.214573    2.714925
    0.214573   -0.214573    0.214573    2.714925
   -0.214573    0.214573    0.214573    2.714925
    0.214573   -0.214573   -0.214573    2.714925
    0.214573    0.214573   -0.214573    2.714925
   -0.214573   -0.214573   -0.214573    2.714925
    0.214573   -0.214573    0.214573    2.714925
   -0.214573    0.214573   -0.214573    2.714925
   -0.214573   -0.214573    0.214573    2.714925
    0.214573    0.214573    0.214573    2.714925
   -0.214573    0.214573    0.214574    2.714925
    0.214573   -0.214573   -0.214573    2.714925
    0.214573    0.214573   -0.214573    2.714925
   -0.214573   -0.214573   -0.214573    2.714925
    0.214573   -0.214573    0.214573    2.714925
   -0.214573    0.214573   -0.214573    2.714925
   -0.214573   -0.214573    0.214573    2.714925
    0.214573    0.214573    0.214573    2.714925
   -0.214573    0.214573    0.214573    2.714925
    0.214573   -0.214573   -0.214573    2.714925
    0.214573    0.214573   -0.214573    2.714925
   -0.214573   -0.214573   -0.214573    2.714925
    0.214573   -0.214573    0.214573    2.714925
   -0.214573    0.214573   -0.214573    2.714925
   -0.214573   -0.214573    0.214573    2.714925
    0.214573    0.214573    0.214573    2.714925
   -0.214573    0.214573    0.214573    2.714925
    0.214573   -0.214573   -0.214573    2.714925
    0.214573    0.214573   -0.214573    2.714925
   -0.214573   -0.214573   -0.214573    2.714925
    0.214573   -0.214573    0.214573    2.714925
   -0.214573    0.214573   -0.214573    2.714925
   -0.214573   -0.214573    0.214573    2.714925
    0.214573    0.214573    0.214573    2.714925
   -0.214573    0.214573    0.214574    2.714925
    0.214573   -0.214573   -0.214573    2.714925
    0.214573    0.214573   -0.214573    2.714925
   -0.214573   -0.214573   -0.214573    2.714925
    0.214573   -0.214573    0.214573    2.714925
   -0.214573    0.214573    0.214573    2.714925
   -0.214573   -0.214573    0.214573    2.714925
    0.214573    0.214573    0.214573    2.714925
   -0.214573    0.214573   -0.214573    2.714925
