                                                                                      
                                       ``:oss/                                        
                           `.+s+.     .+ys--yh+     `./ss+.                           
                          -sh//yy+`   +yy   +yy    -+h+-oyy                           
                          -yh- .oyy/.-sh.   .syo-.:sy-  /yh                           
                 `.-.`    `yh+   -oyyyo.     `/syys:    oys      `.`                  
               `/+ssys+-` `sh+      `                   oys`   .:osyo`                
               -yh- ./syyooyo`                          .sys+/oyo--yh/                
               `yy+    .-:-.                             `-/+/:`  -sh-                
                /yh.                                              oys                 
          ``..---hho---------`   .---------..`      `.-----.`    -hd+---.             
       `./osmNMMMMMMMMMMMMMMMs. +NNMMMMMMMMNNmh+.   yNMMMMMNm-  oNMMMMMNmo++:`        
       +sy--/sdMMMhyyyyyyyNMMh- .oyNMMmyyyyyhNMMm+` -yMMMdyyo:` .oyyNMMNhs+syy`       
       -yy/   /MMM+.`-+/``mMMy-   `mMMh:`````.dMMN:` `MMMy-`-dhhy```mMMy:``+hs        
        -yy+` /MMMo:-mMM+`-oo/.    mMMh:     `dMMN/`  dMMm:`dMMMMy..MMMo-.+yo`        
         .sys`/MMMMNNMMMs-         mMMmyooooymMMNo:   oMMM/sMMMMMM++MMN//oh:          
          `sh+/MMMhyyMMMs- `-`     mMMMMMMMMMNmy+-`   -MMMhMMMsmMMmdMMd/yy+           
    `-/+++oyy-/MMM+.`/hh/.`mNm:`   mMMd+/////:-.`      NMMMMMd/:NMMMMMy:/yyo/:.`      
   +os+//:-..-oMMMo:--:::-/MMMo. .-mMMd+---`           hMMMMN+. oMMMMMo. `-+osyso:`   
   syo     `mNMMMMMNNNNNNNNMMMo.oNNMMMMMNNNN:`         +MMMMs:`  dMMMN/`     ``:syo   
   /yh`     :syyyyyyyyyyyyyyyy+.`+syyyyyyyyo:`         .oyys:`   .oyys:`        +yh   
   -yh-        ````````````````    `````````              ``        ``          oys   
   -+h/------------------------::::::::://////++++++++++++++++++++++///////::::/yd:   
   shdddddddddddddddddddddddddddddhhhhhhhhyyyyyssssssssssssssssyyyyyyyhhhhhhhddddh`   
                                                                                      
  S. Ponce, E. R. Margine, C. Verdi, and F. Giustino,                                 
                                                Comput. Phys. Commun. 209, 116 (2016) 
                                                                                      

     Program EPW v.5.3.1 starts on 15Jun2021 at 21: 7:15 

     This program is part of the open-source Quantum ESPRESSO suite
     for quantum simulation of materials; please cite
         "P. Giannozzi et al., J. Phys.:Condens. Matter 21 395502 (2009);
         "P. Giannozzi et al., J. Phys.:Condens. Matter 29 465901 (2017);
          URL http://www.quantum-espresso.org", 
     in publications or presentations arising from this work. More details at
     http://www.quantum-espresso.org/quote

     Parallel version (MPI & OpenMP), running on       4 processor cores
     Number of MPI processes:                 4
     Threads/MPI process:                     1

     MPI processes distributed on     1 nodes
     K-points division:     npool     =       4
     Reading input from pb.epw2.in

     Reading supplied temperature list.
                      
     ------------------------------------------------------------------------ 
                   RESTART - RESTART - RESTART - RESTART                         
     Restart is done without reading PWSCF save file.                  
     Be aware that some consistency checks are therefore not done.                  
     ------------------------------------------------------------------------ 
                      

     --                                                                         

     bravais-lattice index     =            0
     lattice parameter (a_0)   =       0.0000  a.u.
     unit-cell volume          =       0.0000 (a.u.)^3
     number of atoms/cell      =            0
     number of atomic types    =            0
     kinetic-energy cut-off    =       0.0000  Ry
     charge density cut-off    =       0.0000  Ry
     Exchange-correlation= not set
                           (  -1  -1  -1  -1  -1  -1  -1)


     celldm(1)=    0.00000  celldm(2)=    0.00000  celldm(3)=    0.00000
     celldm(4)=    0.00000  celldm(5)=    0.00000  celldm(6)=    0.00000

     crystal axes: (cart. coord. in units of a_0)
               a(1) = (  0.0000  0.0000  0.0000 )  
               a(2) = (  0.0000  0.0000  0.0000 )  
               a(3) = (  0.0000  0.0000  0.0000 )  

     reciprocal axes: (cart. coord. in units 2 pi/a_0)
               b(1) = (  0.0000  0.0000  0.0000 )  
               b(2) = (  0.0000  0.0000  0.0000 )  
               b(3) = (  0.0000  0.0000  0.0000 )  


     Atoms inside the unit cell: 

   Cartesian axes

     site n.  atom      mass           positions (a_0 units)


     No symmetry!

     G cutoff =    0.0000  (      0 G-vectors)     FFT grid: (  0,  0,  0)
     number of k points=    0
                       cart. coord. in units 2pi/a_0
     EPW          :      0.00s CPU      0.01s WALL

     EPW          :      0.00s CPU      0.01s WALL


     -------------------------------------------------------------------
     Using pb.ukk from disk
     -------------------------------------------------------------------

     Symmetries of Bravais lattice:  48
     Symmetries of crystal:          48

     Do not need to read .epb files; read .fmt files


     Band disentanglement is used: nbndsub =    4
     Use zone-centred Wigner-Seitz cells 
     Number of WS vectors for electrons      279
     Number of WS vectors for phonons       43
     Number of WS vectors for electron-phonon       43
     Maximum number of cores for efficient parallelization      129
     Results may improve by using use_ws == .TRUE. 

     Reading Hamiltonian, Dynamical matrix and EP vertex in Wann rep from file


     Finished reading Wann rep data from file

System file does not exist
     ===================================================================
     Memory usage:  VmHWM =         0Mb
                   VmPeak =         0Mb
     ===================================================================
     
     Using q-mesh file: path2.dat
     WARNING: q-point weigths do not add up to 1 [loadqmesh_serial]
     Size of q point mesh for interpolation:        181
     Using uniform k-mesh:   20  20  20
     Size of k point mesh for interpolation:      16000
     Max number of k points per pool:             4000

     Fermi energy coarse grid =  11.801776 eV

     Skipping the first    5 bands:

     The Fermi level will be determined with   4.00000 electrons

     Fermi energy is calculated from the fine k-mesh: Ef =  11.612834 eV

     ===================================================================

              ibndmin =     2  ebndmin =    10.613 eV
              ibndmax =     4  ebndmax =    12.600 eV


     Number of ep-matrix elements per pool :        54000 ~=  421.88 Kb (@ 8 bytes/ DP)
      
     A selecq.fmt file was found but re-created because selecqread == .FALSE. 
     Number selected, total         100         100
     We only need to compute      181 q-points
      

     ===================================================================
     Phonon (Imaginary) Self-Energy in the Migdal Approximation
     ===================================================================


     Fermi Surface thickness =   1.000000 eV

     Golden Rule strictly enforced with T =   0.000006 eV
     Gaussian Broadening:   0.200000 eV, ngauss=   1
     DOS =  0.235546 states/spin/eV/Unit Cell at Ef= 11.612834 eV

     ismear =     1 iq =       1 coord.:   0.00000  0.00000  0.00000 wt:   1.00000 Temp:    0.075K
     -------------------------------------------------------------------
     lambda___(   1 )=       0.000000   gamma___=       0.000000 meV   omega=      0.0000 meV
     lambda_tr(   1 )=       0.000000   gamma_tr=       0.000000 meV   omega=      0.0000 meV
     lambda___(   2 )=       0.000000   gamma___=       0.000000 meV   omega=      0.0000 meV
     lambda_tr(   2 )=       0.000000   gamma_tr=       0.000000 meV   omega=      0.0000 meV
     lambda___(   3 )=       0.000000   gamma___=       0.000000 meV   omega=      0.0000 meV
     lambda_tr(   3 )=       0.000000   gamma_tr=       0.000000 meV   omega=      0.0000 meV
     lambda___( tot )=       0.000000
     lambda_tr( tot )=       0.000000
     -------------------------------------------------------------------


     Number of (k,k+q) pairs on the Fermi surface:     3850 out of     8000


     ismear =     1 iq =       2 coord.:   0.01667  0.00000  0.01667 wt:   1.00000 Temp:    0.075K
     -------------------------------------------------------------------
     lambda___(   1 )=       0.497257   gamma___=       0.000147 meV   omega=      0.6314 meV
     lambda_tr(   1 )=       0.002499   gamma_tr=       0.000001 meV   omega=      0.6314 meV
     lambda___(   2 )=       0.497257   gamma___=       0.000147 meV   omega=      0.6314 meV
     lambda_tr(   2 )=       0.002499   gamma_tr=       0.000001 meV   omega=      0.6314 meV
     lambda___(   3 )=       0.615290   gamma___=       0.000352 meV   omega=      0.8792 meV
     lambda_tr(   3 )=       0.027564   gamma_tr=       0.000016 meV   omega=      0.8792 meV
     lambda___( tot )=       1.609803
     lambda_tr( tot )=       0.032561
     -------------------------------------------------------------------


     Number of (k,k+q) pairs on the Fermi surface:     3525 out of     8000


     ismear =     1 iq =       3 coord.:   0.03333  0.00000  0.03333 wt:   1.00000 Temp:    0.075K
     -------------------------------------------------------------------
     lambda___(   1 )=       0.130304   gamma___=       0.000153 meV   omega=      1.2600 meV
     lambda_tr(   1 )=      -0.000612   gamma_tr=      -0.000001 meV   omega=      1.2600 meV
     lambda___(   2 )=       0.130304   gamma___=       0.000153 meV   omega=      1.2600 meV
     lambda_tr(   2 )=      -0.000612   gamma_tr=      -0.000001 meV   omega=      1.2600 meV
     lambda___(   3 )=       0.313813   gamma___=       0.000714 meV   omega=      1.7530 meV
     lambda_tr(   3 )=       0.069243   gamma_tr=       0.000157 meV   omega=      1.7530 meV
     lambda___( tot )=       0.574420
     lambda_tr( tot )=       0.068019
     -------------------------------------------------------------------


     Number of (k,k+q) pairs on the Fermi surface:     3176 out of     8000


     ismear =     1 iq =       4 coord.:   0.05000  0.00000  0.05000 wt:   1.00000 Temp:    0.075K
     -------------------------------------------------------------------
     lambda___(   1 )=       0.051219   gamma___=       0.000134 meV   omega=      1.8830 meV
     lambda_tr(   1 )=       0.006220   gamma_tr=       0.000016 meV   omega=      1.8830 meV
     lambda___(   2 )=       0.051219   gamma___=       0.000134 meV   omega=      1.8830 meV
     lambda_tr(   2 )=       0.006220   gamma_tr=       0.000016 meV   omega=      1.8830 meV
     lambda___(   3 )=       0.344215   gamma___=       0.001743 meV   omega=      2.6162 meV
     lambda_tr(   3 )=       0.192439   gamma_tr=       0.000975 meV   omega=      2.6162 meV
     lambda___( tot )=       0.446654
     lambda_tr( tot )=       0.204880
     -------------------------------------------------------------------


     Number of (k,k+q) pairs on the Fermi surface:     2826 out of     8000


     ismear =     1 iq =       5 coord.:   0.06667  0.00000  0.06667 wt:   1.00000 Temp:    0.075K
     -------------------------------------------------------------------
     lambda___(   1 )=       0.027594   gamma___=       0.000127 meV   omega=      2.4976 meV
     lambda_tr(   1 )=       0.006856   gamma_tr=       0.000032 meV   omega=      2.4976 meV
     lambda___(   2 )=       0.027594   gamma___=       0.000127 meV   omega=      2.4976 meV
     lambda_tr(   2 )=       0.006856   gamma_tr=       0.000032 meV   omega=      2.4976 meV
     lambda___(   3 )=       0.077119   gamma___=       0.000685 meV   omega=      3.4634 meV
     lambda_tr(   3 )=       0.038241   gamma_tr=       0.000339 meV   omega=      3.4634 meV
     lambda___( tot )=       0.132306
     lambda_tr( tot )=       0.051953
     -------------------------------------------------------------------


     Number of (k,k+q) pairs on the Fermi surface:     2545 out of     8000


     ismear =     1 iq =       6 coord.:   0.08333  0.00000  0.08333 wt:   1.00000 Temp:    0.075K
     -------------------------------------------------------------------
     lambda___(   1 )=       0.042016   gamma___=       0.000299 meV   omega=      3.1013 meV
     lambda_tr(   1 )=       0.019319   gamma_tr=       0.000137 meV   omega=      3.1013 meV
     lambda___(   2 )=       0.042016   gamma___=       0.000299 meV   omega=      3.1013 meV
     lambda_tr(   2 )=       0.019319   gamma_tr=       0.000137 meV   omega=      3.1013 meV
     lambda___(   3 )=       0.034808   gamma___=       0.000474 meV   omega=      4.2899 meV
     lambda_tr(   3 )=       0.017486   gamma_tr=       0.000238 meV   omega=      4.2899 meV
     lambda___( tot )=       0.118839
     lambda_tr( tot )=       0.056124
     -------------------------------------------------------------------


     Number of (k,k+q) pairs on the Fermi surface:     2268 out of     8000


     ismear =     1 iq =       7 coord.:   0.10000  0.00000  0.10000 wt:   1.00000 Temp:    0.075K
     -------------------------------------------------------------------
     lambda___(   1 )=       0.035078   gamma___=       0.000354 meV   omega=      3.6916 meV
     lambda_tr(   1 )=       0.019870   gamma_tr=       0.000200 meV   omega=      3.6916 meV
     lambda___(   2 )=       0.035078   gamma___=       0.000354 meV   omega=      3.6916 meV
     lambda_tr(   2 )=       0.019870   gamma_tr=       0.000200 meV   omega=      3.6916 meV
     lambda___(   3 )=       0.061530   gamma___=       0.001180 meV   omega=      5.0909 meV
     lambda_tr(   3 )=       0.039865   gamma_tr=       0.000765 meV   omega=      5.0909 meV
     lambda___( tot )=       0.131687
     lambda_tr( tot )=       0.079606
     -------------------------------------------------------------------


     Number of (k,k+q) pairs on the Fermi surface:     2050 out of     8000


     ismear =     1 iq =       8 coord.:   0.11667  0.00000  0.11667 wt:   1.00000 Temp:    0.075K
     -------------------------------------------------------------------
     lambda___(   1 )=       0.061213   gamma___=       0.000824 meV   omega=      4.2660 meV
     lambda_tr(   1 )=       0.024865   gamma_tr=       0.000335 meV   omega=      4.2660 meV
     lambda___(   2 )=       0.061213   gamma___=       0.000824 meV   omega=      4.2660 meV
     lambda_tr(   2 )=       0.024865   gamma_tr=       0.000335 meV   omega=      4.2660 meV
     lambda___(   3 )=       0.047019   gamma___=       0.001196 meV   omega=      5.8620 meV
     lambda_tr(   3 )=       0.024962   gamma_tr=       0.000635 meV   omega=      5.8620 meV
     lambda___( tot )=       0.169444
     lambda_tr( tot )=       0.074691
     -------------------------------------------------------------------


     Number of (k,k+q) pairs on the Fermi surface:     2006 out of     8000


     ismear =     1 iq =       9 coord.:   0.13333  0.00000  0.13333 wt:   1.00000 Temp:    0.075K
     -------------------------------------------------------------------
     lambda___(   1 )=       0.212514   gamma___=       0.003657 meV   omega=      4.8225 meV
     lambda_tr(   1 )=       0.110447   gamma_tr=       0.001901 meV   omega=      4.8225 meV
     lambda___(   2 )=       0.212514   gamma___=       0.003657 meV   omega=      4.8225 meV
     lambda_tr(   2 )=       0.110447   gamma_tr=       0.001901 meV   omega=      4.8225 meV
     lambda___(   3 )=       0.057775   gamma___=       0.001862 meV   omega=      6.5994 meV
     lambda_tr(   3 )=       0.038449   gamma_tr=       0.001239 meV   omega=      6.5994 meV
     lambda___( tot )=       0.482803
     lambda_tr( tot )=       0.259343
     -------------------------------------------------------------------


     Number of (k,k+q) pairs on the Fermi surface:     1946 out of     8000


     ismear =     1 iq =      10 coord.:   0.15000  0.00000  0.15000 wt:   1.00000 Temp:    0.075K
     -------------------------------------------------------------------
     lambda___(   1 )=       0.367705   gamma___=       0.007814 meV   omega=      5.3589 meV
     lambda_tr(   1 )=       0.249677   gamma_tr=       0.005306 meV   omega=      5.3589 meV
     lambda___(   2 )=       0.367705   gamma___=       0.007814 meV   omega=      5.3589 meV
     lambda_tr(   2 )=       0.249677   gamma_tr=       0.005306 meV   omega=      5.3589 meV
     lambda___(   3 )=       0.152656   gamma___=       0.006019 meV   omega=      7.2995 meV
     lambda_tr(   3 )=       0.107099   gamma_tr=       0.004223 meV   omega=      7.2995 meV
     lambda___( tot )=       0.888066
     lambda_tr( tot )=       0.606453
     -------------------------------------------------------------------


     Number of (k,k+q) pairs on the Fermi surface:     1932 out of     8000


     ismear =     1 iq =      11 coord.:   0.16667  0.00000  0.16667 wt:   1.00000 Temp:    0.075K
     -------------------------------------------------------------------
     lambda___(   1 )=       0.216535   gamma___=       0.005528 meV   omega=      5.8735 meV
     lambda_tr(   1 )=       0.135313   gamma_tr=       0.003454 meV   omega=      5.8735 meV
     lambda___(   2 )=       0.216535   gamma___=       0.005528 meV   omega=      5.8735 meV
     lambda_tr(   2 )=       0.135313   gamma_tr=       0.003454 meV   omega=      5.8735 meV
     lambda___(   3 )=       0.106504   gamma___=       0.004993 meV   omega=      7.9594 meV
     lambda_tr(   3 )=       0.060140   gamma_tr=       0.002819 meV   omega=      7.9594 meV
     lambda___( tot )=       0.539573
     lambda_tr( tot )=       0.330767
     -------------------------------------------------------------------


     Number of (k,k+q) pairs on the Fermi surface:     1980 out of     8000


     ismear =     1 iq =      12 coord.:   0.18333  0.00000  0.18333 wt:   1.00000 Temp:    0.075K
     -------------------------------------------------------------------
     lambda___(   1 )=       0.183903   gamma___=       0.005513 meV   omega=      6.3648 meV
     lambda_tr(   1 )=       0.093849   gamma_tr=       0.002813 meV   omega=      6.3648 meV
     lambda___(   2 )=       0.183903   gamma___=       0.005513 meV   omega=      6.3648 meV
     lambda_tr(   2 )=       0.093849   gamma_tr=       0.002813 meV   omega=      6.3648 meV
     lambda___(   3 )=       0.114008   gamma___=       0.006206 meV   omega=      8.5766 meV
     lambda_tr(   3 )=       0.044757   gamma_tr=       0.002436 meV   omega=      8.5766 meV
     lambda___( tot )=       0.481813
     lambda_tr( tot )=       0.232455
     -------------------------------------------------------------------


     Number of (k,k+q) pairs on the Fermi surface:     1972 out of     8000


     ismear =     1 iq =      13 coord.:   0.20000  0.00000  0.20000 wt:   1.00000 Temp:    0.075K
     -------------------------------------------------------------------
     lambda___(   1 )=       0.235949   gamma___=       0.008148 meV   omega=      6.8314 meV
     lambda_tr(   1 )=       0.068586   gamma_tr=       0.002369 meV   omega=      6.8314 meV
     lambda___(   2 )=       0.235949   gamma___=       0.008148 meV   omega=      6.8314 meV
     lambda_tr(   2 )=       0.068586   gamma_tr=       0.002369 meV   omega=      6.8314 meV
     lambda___(   3 )=       0.242029   gamma___=       0.014992 meV   omega=      9.1492 meV
     lambda_tr(   3 )=       0.037828   gamma_tr=       0.002343 meV   omega=      9.1492 meV
     lambda___( tot )=       0.713927
     lambda_tr( tot )=       0.175000
     -------------------------------------------------------------------


     Number of (k,k+q) pairs on the Fermi surface:     1982 out of     8000


     ismear =     1 iq =      14 coord.:   0.21667  0.00000  0.21667 wt:   1.00000 Temp:    0.075K
     -------------------------------------------------------------------
     lambda___(   1 )=       0.187814   gamma___=       0.007350 meV   omega=      7.2722 meV
     lambda_tr(   1 )=       0.125475   gamma_tr=       0.004910 meV   omega=      7.2722 meV
     lambda___(   2 )=       0.187814   gamma___=       0.007350 meV   omega=      7.2722 meV
     lambda_tr(   2 )=       0.125475   gamma_tr=       0.004910 meV   omega=      7.2722 meV
     lambda___(   3 )=       0.164682   gamma___=       0.011409 meV   omega=      9.6759 meV
     lambda_tr(   3 )=       0.043308   gamma_tr=       0.003000 meV   omega=      9.6759 meV
     lambda___( tot )=       0.540310
     lambda_tr( tot )=       0.294257
     -------------------------------------------------------------------


     Number of (k,k+q) pairs on the Fermi surface:     1970 out of     8000


     ismear =     1 iq =      15 coord.:   0.23333  0.00000  0.23333 wt:   1.00000 Temp:    0.075K
     -------------------------------------------------------------------
     lambda___(   1 )=       0.164311   gamma___=       0.007183 meV   omega=      7.6863 meV
     lambda_tr(   1 )=       0.113706   gamma_tr=       0.004971 meV   omega=      7.6863 meV
     lambda___(   2 )=       0.164311   gamma___=       0.007183 meV   omega=      7.6863 meV
     lambda_tr(   2 )=       0.113706   gamma_tr=       0.004971 meV   omega=      7.6863 meV
     lambda___(   3 )=       0.135594   gamma___=       0.010350 meV   omega=     10.1561 meV
     lambda_tr(   3 )=       0.051116   gamma_tr=       0.003902 meV   omega=     10.1561 meV
     lambda___( tot )=       0.464216
     lambda_tr( tot )=       0.278527
     -------------------------------------------------------------------


     Number of (k,k+q) pairs on the Fermi surface:     1966 out of     8000


     ismear =     1 iq =      16 coord.:   0.25000  0.00000  0.25000 wt:   1.00000 Temp:    0.075K
     -------------------------------------------------------------------
     lambda___(   1 )=       0.074810   gamma___=       0.003608 meV   omega=      8.0733 meV
     lambda_tr(   1 )=       0.050826   gamma_tr=       0.002451 meV   omega=      8.0733 meV
     lambda___(   2 )=       0.074810   gamma___=       0.003608 meV   omega=      8.0733 meV
     lambda_tr(   2 )=       0.050826   gamma_tr=       0.002451 meV   omega=      8.0733 meV
     lambda___(   3 )=       0.138475   gamma___=       0.011491 meV   omega=     10.5897 meV
     lambda_tr(   3 )=       0.065013   gamma_tr=       0.005395 meV   omega=     10.5897 meV
     lambda___( tot )=       0.288096
     lambda_tr( tot )=       0.166665
     -------------------------------------------------------------------


     Number of (k,k+q) pairs on the Fermi surface:     1960 out of     8000


     ismear =     1 iq =      17 coord.:   0.26667  0.00000  0.26667 wt:   1.00000 Temp:    0.075K
     -------------------------------------------------------------------
     lambda___(   1 )=       0.082140   gamma___=       0.004322 meV   omega=      8.4326 meV
     lambda_tr(   1 )=       0.051957   gamma_tr=       0.002734 meV   omega=      8.4326 meV
     lambda___(   2 )=       0.082140   gamma___=       0.004322 meV   omega=      8.4326 meV
     lambda_tr(   2 )=       0.051957   gamma_tr=       0.002734 meV   omega=      8.4326 meV
     lambda___(   3 )=       0.101182   gamma___=       0.009022 meV   omega=     10.9773 meV
     lambda_tr(   3 )=       0.033350   gamma_tr=       0.002974 meV   omega=     10.9773 meV
     lambda___( tot )=       0.265462
     lambda_tr( tot )=       0.137263
     -------------------------------------------------------------------


     Number of (k,k+q) pairs on the Fermi surface:     1934 out of     8000


     ismear =     1 iq =      18 coord.:   0.28333  0.00000  0.28333 wt:   1.00000 Temp:    0.075K
     -------------------------------------------------------------------
     lambda___(   1 )=       0.117436   gamma___=       0.006675 meV   omega=      8.7642 meV
     lambda_tr(   1 )=       0.091753   gamma_tr=       0.005215 meV   omega=      8.7642 meV
     lambda___(   2 )=       0.117436   gamma___=       0.006675 meV   omega=      8.7642 meV
     lambda_tr(   2 )=       0.091753   gamma_tr=       0.005215 meV   omega=      8.7642 meV
     lambda___(   3 )=       0.146012   gamma___=       0.013846 meV   omega=     11.3201 meV
     lambda_tr(   3 )=       0.037778   gamma_tr=       0.003582 meV   omega=     11.3201 meV
     lambda___( tot )=       0.380884
     lambda_tr( tot )=       0.221285
     -------------------------------------------------------------------


     Number of (k,k+q) pairs on the Fermi surface:     1939 out of     8000


     ismear =     1 iq =      19 coord.:   0.30000  0.00000  0.30000 wt:   1.00000 Temp:    0.075K
     -------------------------------------------------------------------
     lambda___(   1 )=       0.094412   gamma___=       0.005745 meV   omega=      9.0680 meV
     lambda_tr(   1 )=       0.078968   gamma_tr=       0.004805 meV   omega=      9.0680 meV
     lambda___(   2 )=       0.094412   gamma___=       0.005745 meV   omega=      9.0680 meV
     lambda_tr(   2 )=       0.078968   gamma_tr=       0.004805 meV   omega=      9.0680 meV
     lambda___(   3 )=       0.181756   gamma___=       0.018159 meV   omega=     11.6196 meV
     lambda_tr(   3 )=       0.060126   gamma_tr=       0.006007 meV   omega=     11.6196 meV
     lambda___( tot )=       0.370580
     lambda_tr( tot )=       0.218062
     -------------------------------------------------------------------


     Number of (k,k+q) pairs on the Fermi surface:     1895 out of     8000


     ismear =     1 iq =      20 coord.:   0.31667  0.00000  0.31667 wt:   1.00000 Temp:    0.075K
     -------------------------------------------------------------------
     lambda___(   1 )=       0.106169   gamma___=       0.006860 meV   omega=      9.3444 meV
     lambda_tr(   1 )=       0.082806   gamma_tr=       0.005350 meV   omega=      9.3444 meV
     lambda___(   2 )=       0.106169   gamma___=       0.006860 meV   omega=      9.3444 meV
     lambda_tr(   2 )=       0.082806   gamma_tr=       0.005350 meV   omega=      9.3444 meV
     lambda___(   3 )=       0.156759   gamma___=       0.016366 meV   omega=     11.8782 meV
     lambda_tr(   3 )=       0.077350   gamma_tr=       0.008076 meV   omega=     11.8782 meV
     lambda___( tot )=       0.369098
     lambda_tr( tot )=       0.242961
     -------------------------------------------------------------------


     Number of (k,k+q) pairs on the Fermi surface:     1905 out of     8000


     ismear =     1 iq =      21 coord.:   0.33333  0.00000  0.33333 wt:   1.00000 Temp:    0.075K
     -------------------------------------------------------------------
     lambda___(   1 )=       0.047851   gamma___=       0.003259 meV   omega=      9.5937 meV
     lambda_tr(   1 )=       0.045665   gamma_tr=       0.003110 meV   omega=      9.5937 meV
     lambda___(   2 )=       0.047851   gamma___=       0.003259 meV   omega=      9.5937 meV
     lambda_tr(   2 )=       0.045665   gamma_tr=       0.003110 meV   omega=      9.5937 meV
     lambda___(   3 )=       0.209604   gamma___=       0.022703 meV   omega=     12.0984 meV
     lambda_tr(   3 )=       0.118159   gamma_tr=       0.012798 meV   omega=     12.0984 meV
     lambda___( tot )=       0.305306
     lambda_tr( tot )=       0.209490
     -------------------------------------------------------------------


     Number of (k,k+q) pairs on the Fermi surface:     1938 out of     8000


     ismear =     1 iq =      22 coord.:   0.35000  0.00000  0.35000 wt:   1.00000 Temp:    0.075K
     -------------------------------------------------------------------
     lambda___(   1 )=       0.087280   gamma___=       0.006224 meV   omega=      9.8163 meV
     lambda_tr(   1 )=       0.073773   gamma_tr=       0.005260 meV   omega=      9.8163 meV
     lambda___(   2 )=       0.087280   gamma___=       0.006224 meV   omega=      9.8163 meV
     lambda_tr(   2 )=       0.073773   gamma_tr=       0.005260 meV   omega=      9.8163 meV
     lambda___(   3 )=       0.332970   gamma___=       0.037175 meV   omega=     12.2832 meV
     lambda_tr(   3 )=       0.213767   gamma_tr=       0.023866 meV   omega=     12.2832 meV
     lambda___( tot )=       0.507530
     lambda_tr( tot )=       0.361314
     -------------------------------------------------------------------


     Number of (k,k+q) pairs on the Fermi surface:     1922 out of     8000


     ismear =     1 iq =      23 coord.:   0.36667  0.00000  0.36667 wt:   1.00000 Temp:    0.075K
     -------------------------------------------------------------------
     lambda___(   1 )=       0.086237   gamma___=       0.006398 meV   omega=     10.0130 meV
     lambda_tr(   1 )=       0.084261   gamma_tr=       0.006251 meV   omega=     10.0130 meV
     lambda___(   2 )=       0.086237   gamma___=       0.006398 meV   omega=     10.0130 meV
     lambda_tr(   2 )=       0.084261   gamma_tr=       0.006251 meV   omega=     10.0130 meV
     lambda___(   3 )=       0.134951   gamma___=       0.015444 meV   omega=     12.4359 meV
     lambda_tr(   3 )=       0.087695   gamma_tr=       0.010036 meV   omega=     12.4359 meV
     lambda___( tot )=       0.307425
     lambda_tr( tot )=       0.256218
     -------------------------------------------------------------------


     Number of (k,k+q) pairs on the Fermi surface:     1967 out of     8000


     ismear =     1 iq =      24 coord.:   0.38333  0.00000  0.38333 wt:   1.00000 Temp:    0.075K
     -------------------------------------------------------------------
     lambda___(   1 )=       0.066953   gamma___=       0.005139 meV   omega=     10.1843 meV
     lambda_tr(   1 )=       0.069123   gamma_tr=       0.005305 meV   omega=     10.1843 meV
     lambda___(   2 )=       0.066953   gamma___=       0.005139 meV   omega=     10.1843 meV
     lambda_tr(   2 )=       0.069123   gamma_tr=       0.005305 meV   omega=     10.1843 meV
     lambda___(   3 )=       0.096129   gamma___=       0.011222 meV   omega=     12.5599 meV
     lambda_tr(   3 )=       0.061296   gamma_tr=       0.007155 meV   omega=     12.5599 meV
     lambda___( tot )=       0.230036
     lambda_tr( tot )=       0.199543
     -------------------------------------------------------------------


     Number of (k,k+q) pairs on the Fermi surface:     1999 out of     8000


     ismear =     1 iq =      25 coord.:   0.40000  0.00000  0.40000 wt:   1.00000 Temp:    0.075K
     -------------------------------------------------------------------
     lambda___(   1 )=       0.052403   gamma___=       0.004139 meV   omega=     10.3310 meV
     lambda_tr(   1 )=       0.054252   gamma_tr=       0.004285 meV   omega=     10.3310 meV
     lambda___(   2 )=       0.052403   gamma___=       0.004139 meV   omega=     10.3310 meV
     lambda_tr(   2 )=       0.054252   gamma_tr=       0.004285 meV   omega=     10.3310 meV
     lambda___(   3 )=       0.186111   gamma___=       0.022069 meV   omega=     12.6587 meV
     lambda_tr(   3 )=       0.156632   gamma_tr=       0.018573 meV   omega=     12.6587 meV
     lambda___( tot )=       0.290917
     lambda_tr( tot )=       0.265137
     -------------------------------------------------------------------


     Number of (k,k+q) pairs on the Fermi surface:     1967 out of     8000


     ismear =     1 iq =      26 coord.:   0.41667  0.00000  0.41667 wt:   1.00000 Temp:    0.075K
     -------------------------------------------------------------------
     lambda___(   1 )=       0.149507   gamma___=       0.012090 meV   omega=     10.4538 meV
     lambda_tr(   1 )=       0.152956   gamma_tr=       0.012369 meV   omega=     10.4538 meV
     lambda___(   2 )=       0.149507   gamma___=       0.012090 meV   omega=     10.4538 meV
     lambda_tr(   2 )=       0.152956   gamma_tr=       0.012369 meV   omega=     10.4538 meV
     lambda___(   3 )=       0.175225   gamma___=       0.021031 meV   omega=     12.7356 meV
     lambda_tr(   3 )=       0.152293   gamma_tr=       0.018279 meV   omega=     12.7356 meV
     lambda___( tot )=       0.474238
     lambda_tr( tot )=       0.458206
     -------------------------------------------------------------------


     Number of (k,k+q) pairs on the Fermi surface:     2092 out of     8000


     ismear =     1 iq =      27 coord.:   0.43333  0.00000  0.43333 wt:   1.00000 Temp:    0.075K
     -------------------------------------------------------------------
     lambda___(   1 )=       0.094689   gamma___=       0.007804 meV   omega=     10.5532 meV
     lambda_tr(   1 )=       0.114950   gamma_tr=       0.009473 meV   omega=     10.5532 meV
     lambda___(   2 )=       0.094689   gamma___=       0.007804 meV   omega=     10.5532 meV
     lambda_tr(   2 )=       0.114950   gamma_tr=       0.009473 meV   omega=     10.5532 meV
     lambda___(   3 )=       0.197065   gamma___=       0.023868 meV   omega=     12.7936 meV
     lambda_tr(   3 )=       0.191677   gamma_tr=       0.023216 meV   omega=     12.7936 meV
     lambda___( tot )=       0.386444
     lambda_tr( tot )=       0.421578
     -------------------------------------------------------------------


     Number of (k,k+q) pairs on the Fermi surface:     2196 out of     8000


     ismear =     1 iq =      28 coord.:   0.45000  0.00000  0.45000 wt:   1.00000 Temp:    0.075K
     -------------------------------------------------------------------
     lambda___(   1 )=       0.043751   gamma___=       0.003658 meV   omega=     10.6299 meV
     lambda_tr(   1 )=       0.064081   gamma_tr=       0.005358 meV   omega=     10.6299 meV
     lambda___(   2 )=       0.043751   gamma___=       0.003658 meV   omega=     10.6299 meV
     lambda_tr(   2 )=       0.064081   gamma_tr=       0.005358 meV   omega=     10.6299 meV
     lambda___(   3 )=       0.395493   gamma___=       0.048217 meV   omega=     12.8356 meV
     lambda_tr(   3 )=       0.333574   gamma_tr=       0.040668 meV   omega=     12.8356 meV
     lambda___( tot )=       0.482995
     lambda_tr( tot )=       0.461735
     -------------------------------------------------------------------


     Number of (k,k+q) pairs on the Fermi surface:     2224 out of     8000


     ismear =     1 iq =      29 coord.:   0.46667  0.00000  0.46667 wt:   1.00000 Temp:    0.075K
     -------------------------------------------------------------------
     lambda___(   1 )=       0.047838   gamma___=       0.004041 meV   omega=     10.6843 meV
     lambda_tr(   1 )=       0.065074   gamma_tr=       0.005497 meV   omega=     10.6843 meV
     lambda___(   2 )=       0.047838   gamma___=       0.004041 meV   omega=     10.6843 meV
     lambda_tr(   2 )=       0.065074   gamma_tr=       0.005497 meV   omega=     10.6843 meV
     lambda___(   3 )=       0.304721   gamma___=       0.037314 meV   omega=     12.8639 meV
     lambda_tr(   3 )=       0.405982   gamma_tr=       0.049714 meV   omega=     12.8639 meV
     lambda___( tot )=       0.400397
     lambda_tr( tot )=       0.536130
     -------------------------------------------------------------------


     Number of (k,k+q) pairs on the Fermi surface:     2306 out of     8000


     ismear =     1 iq =      30 coord.:   0.48333  0.00000  0.48333 wt:   1.00000 Temp:    0.075K
     -------------------------------------------------------------------
     lambda___(   1 )=       0.104944   gamma___=       0.008919 meV   omega=     10.7168 meV
     lambda_tr(   1 )=       0.152973   gamma_tr=       0.013001 meV   omega=     10.7168 meV
     lambda___(   2 )=       0.104944   gamma___=       0.008919 meV   omega=     10.7168 meV
     lambda_tr(   2 )=       0.152973   gamma_tr=       0.013001 meV   omega=     10.7168 meV
     lambda___(   3 )=       0.262153   gamma___=       0.032183 meV   omega=     12.8802 meV
     lambda_tr(   3 )=       0.389751   gamma_tr=       0.047847 meV   omega=     12.8802 meV
     lambda___( tot )=       0.472041
     lambda_tr( tot )=       0.695698
     -------------------------------------------------------------------


     Number of (k,k+q) pairs on the Fermi surface:     2390 out of     8000


     ismear =     1 iq =      31 coord.:   0.50000  0.00000  0.50000 wt:   1.00000 Temp:    0.075K
     -------------------------------------------------------------------
     lambda___(   1 )=       0.166415   gamma___=       0.014172 meV   omega=     10.7276 meV
     lambda_tr(   1 )=       0.249839   gamma_tr=       0.021276 meV   omega=     10.7276 meV
     lambda___(   2 )=       0.166415   gamma___=       0.014172 meV   omega=     10.7276 meV
     lambda_tr(   2 )=       0.249839   gamma_tr=       0.021276 meV   omega=     10.7276 meV
     lambda___(   3 )=       0.298322   gamma___=       0.036653 meV   omega=     12.8855 meV
     lambda_tr(   3 )=       0.356472   gamma_tr=       0.043798 meV   omega=     12.8855 meV
     lambda___( tot )=       0.631151
     lambda_tr( tot )=       0.856149
     -------------------------------------------------------------------


     Number of (k,k+q) pairs on the Fermi surface:     2430 out of     8000


     ismear =     1 iq =      32 coord.:   0.50000  0.00833  0.50833 wt:   1.00000 Temp:    0.075K
     -------------------------------------------------------------------
     lambda___(   1 )=       0.140472   gamma___=       0.011964 meV   omega=     10.7283 meV
     lambda_tr(   1 )=       0.207294   gamma_tr=       0.017655 meV   omega=     10.7283 meV
     lambda___(   2 )=       0.140443   gamma___=       0.011964 meV   omega=     10.7294 meV
     lambda_tr(   2 )=       0.207251   gamma_tr=       0.017655 meV   omega=     10.7294 meV
     lambda___(   3 )=       0.257067   gamma___=       0.031574 meV   omega=     12.8833 meV
     lambda_tr(   3 )=       0.350927   gamma_tr=       0.043102 meV   omega=     12.8833 meV
     lambda___( tot )=       0.537982
     lambda_tr( tot )=       0.765472
     -------------------------------------------------------------------


     Number of (k,k+q) pairs on the Fermi surface:     2407 out of     8000


     ismear =     1 iq =      33 coord.:   0.50000  0.01667  0.51667 wt:   1.00000 Temp:    0.075K
     -------------------------------------------------------------------
     lambda___(   1 )=       0.094153   gamma___=       0.008022 meV   omega=     10.7303 meV
     lambda_tr(   1 )=       0.133515   gamma_tr=       0.011376 meV   omega=     10.7303 meV
     lambda___(   2 )=       0.094075   gamma___=       0.008022 meV   omega=     10.7347 meV
     lambda_tr(   2 )=       0.133404   gamma_tr=       0.011376 meV   omega=     10.7347 meV
     lambda___(   3 )=       0.262796   gamma___=       0.032245 meV   omega=     12.8769 meV
     lambda_tr(   3 )=       0.402829   gamma_tr=       0.049428 meV   omega=     12.8769 meV
     lambda___( tot )=       0.451024
     lambda_tr( tot )=       0.669748
     -------------------------------------------------------------------


     Number of (k,k+q) pairs on the Fermi surface:     2393 out of     8000


     ismear =     1 iq =      34 coord.:   0.50000  0.02500  0.52500 wt:   1.00000 Temp:    0.075K
     -------------------------------------------------------------------
     lambda___(   1 )=       0.073129   gamma___=       0.006235 meV   omega=     10.7337 meV
     lambda_tr(   1 )=       0.093233   gamma_tr=       0.007949 meV   omega=     10.7337 meV
     lambda___(   2 )=       0.072995   gamma___=       0.006235 meV   omega=     10.7436 meV
     lambda_tr(   2 )=       0.093062   gamma_tr=       0.007949 meV   omega=     10.7436 meV
     lambda___(   3 )=       0.337411   gamma___=       0.041332 meV   omega=     12.8662 meV
     lambda_tr(   3 )=       0.499227   gamma_tr=       0.061154 meV   omega=     12.8662 meV
     lambda___( tot )=       0.483536
     lambda_tr( tot )=       0.685523
     -------------------------------------------------------------------


     Number of (k,k+q) pairs on the Fermi surface:     2338 out of     8000


     ismear =     1 iq =      35 coord.:   0.50000  0.03333  0.53333 wt:   1.00000 Temp:    0.075K
     -------------------------------------------------------------------
     lambda___(   1 )=       0.070167   gamma___=       0.005988 meV   omega=     10.7385 meV
     lambda_tr(   1 )=       0.080627   gamma_tr=       0.006880 meV   omega=     10.7385 meV
     lambda___(   2 )=       0.073365   gamma___=       0.006281 meV   omega=     10.7558 meV
     lambda_tr(   2 )=       0.076973   gamma_tr=       0.006589 meV   omega=     10.7558 meV
     lambda___(   3 )=       0.357580   gamma___=       0.043702 meV   omega=     12.8514 meV
     lambda_tr(   3 )=       0.526677   gamma_tr=       0.064368 meV   omega=     12.8514 meV
     lambda___( tot )=       0.501112
     lambda_tr( tot )=       0.684277
     -------------------------------------------------------------------


     Number of (k,k+q) pairs on the Fermi surface:     2320 out of     8000


     ismear =     1 iq =      36 coord.:   0.50000  0.04167  0.54167 wt:   1.00000 Temp:    0.075K
     -------------------------------------------------------------------
     lambda___(   1 )=       0.058221   gamma___=       0.004974 meV   omega=     10.7448 meV
     lambda_tr(   1 )=       0.073063   gamma_tr=       0.006242 meV   omega=     10.7448 meV
     lambda___(   2 )=       0.050868   gamma___=       0.004367 meV   omega=     10.7713 meV
     lambda_tr(   2 )=       0.064066   gamma_tr=       0.005500 meV   omega=     10.7713 meV
     lambda___(   3 )=       0.434377   gamma___=       0.052930 meV   omega=     12.8324 meV
     lambda_tr(   3 )=       0.600444   gamma_tr=       0.073166 meV   omega=     12.8324 meV
     lambda___( tot )=       0.543466
     lambda_tr( tot )=       0.737573
     -------------------------------------------------------------------


     Number of (k,k+q) pairs on the Fermi surface:     2304 out of     8000


     ismear =     1 iq =      37 coord.:   0.50000  0.05000  0.55000 wt:   1.00000 Temp:    0.075K
     -------------------------------------------------------------------
     lambda___(   1 )=       0.045943   gamma___=       0.003931 meV   omega=     10.7526 meV
     lambda_tr(   1 )=       0.066616   gamma_tr=       0.005699 meV   omega=     10.7526 meV
     lambda___(   2 )=       0.042269   gamma___=       0.003641 meV   omega=     10.7899 meV
     lambda_tr(   2 )=       0.063125   gamma_tr=       0.005438 meV   omega=     10.7899 meV
     lambda___(   3 )=       0.460100   gamma___=       0.055864 meV   omega=     12.8093 meV
     lambda_tr(   3 )=       0.607848   gamma_tr=       0.073802 meV   omega=     12.8093 meV
     lambda___( tot )=       0.548312
     lambda_tr( tot )=       0.737589
     -------------------------------------------------------------------


     Number of (k,k+q) pairs on the Fermi surface:     2286 out of     8000


     ismear =     1 iq =      38 coord.:   0.50000  0.05833  0.55833 wt:   1.00000 Temp:    0.075K
     -------------------------------------------------------------------
     lambda___(   1 )=       0.046009   gamma___=       0.003943 meV   omega=     10.7619 meV
     lambda_tr(   1 )=       0.065696   gamma_tr=       0.005630 meV   omega=     10.7619 meV
     lambda___(   2 )=       0.054547   gamma___=       0.004718 meV   omega=     10.8113 meV
     lambda_tr(   2 )=       0.075737   gamma_tr=       0.006551 meV   omega=     10.8113 meV
     lambda___(   3 )=       0.337682   gamma___=       0.040828 meV   omega=     12.7823 meV
     lambda_tr(   3 )=       0.439509   gamma_tr=       0.053139 meV   omega=     12.7823 meV
     lambda___( tot )=       0.438238
     lambda_tr( tot )=       0.580942
     -------------------------------------------------------------------


     Number of (k,k+q) pairs on the Fermi surface:     2235 out of     8000


     ismear =     1 iq =      39 coord.:   0.50000  0.06667  0.56667 wt:   1.00000 Temp:    0.075K
     -------------------------------------------------------------------
     lambda___(   1 )=       0.068323   gamma___=       0.005867 meV   omega=     10.7728 meV
     lambda_tr(   1 )=       0.092461   gamma_tr=       0.007940 meV   omega=     10.7728 meV
     lambda___(   2 )=       0.079793   gamma___=       0.006932 meV   omega=     10.8353 meV
     lambda_tr(   2 )=       0.104370   gamma_tr=       0.009068 meV   omega=     10.8353 meV
     lambda___(   3 )=       0.255455   gamma___=       0.030737 meV   omega=     12.7516 meV
     lambda_tr(   3 )=       0.324027   gamma_tr=       0.038988 meV   omega=     12.7516 meV
     lambda___( tot )=       0.403570
     lambda_tr( tot )=       0.520859
     -------------------------------------------------------------------


     Number of (k,k+q) pairs on the Fermi surface:     2217 out of     8000


     ismear =     1 iq =      40 coord.:   0.50000  0.07500  0.57500 wt:   1.00000 Temp:    0.075K
     -------------------------------------------------------------------
     lambda___(   1 )=       0.117240   gamma___=       0.010092 meV   omega=     10.7854 meV
     lambda_tr(   1 )=       0.153958   gamma_tr=       0.013253 meV   omega=     10.7854 meV
     lambda___(   2 )=       0.087910   gamma___=       0.007675 meV   omega=     10.8617 meV
     lambda_tr(   2 )=       0.118441   gamma_tr=       0.010340 meV   omega=     10.8617 meV
     lambda___(   3 )=       0.183825   gamma___=       0.021999 meV   omega=     12.7171 meV
     lambda_tr(   3 )=       0.237667   gamma_tr=       0.028443 meV   omega=     12.7171 meV
     lambda___( tot )=       0.388974
     lambda_tr( tot )=       0.510066
     -------------------------------------------------------------------


     Number of (k,k+q) pairs on the Fermi surface:     2172 out of     8000


     ismear =     1 iq =      41 coord.:   0.50000  0.08333  0.58333 wt:   1.00000 Temp:    0.075K
     -------------------------------------------------------------------
     lambda___(   1 )=       0.181135   gamma___=       0.015633 meV   omega=     10.7997 meV
     lambda_tr(   1 )=       0.212603   gamma_tr=       0.018349 meV   omega=     10.7997 meV
     lambda___(   2 )=       0.099070   gamma___=       0.008694 meV   omega=     10.8900 meV
     lambda_tr(   2 )=       0.122293   gamma_tr=       0.010732 meV   omega=     10.8900 meV
     lambda___(   3 )=       0.118288   gamma___=       0.014072 meV   omega=     12.6792 meV
     lambda_tr(   3 )=       0.137309   gamma_tr=       0.016335 meV   omega=     12.6792 meV
     lambda___( tot )=       0.398493
     lambda_tr( tot )=       0.472205
     -------------------------------------------------------------------


     Number of (k,k+q) pairs on the Fermi surface:     2122 out of     8000


     ismear =     1 iq =      42 coord.:   0.50000  0.09167  0.59167 wt:   1.00000 Temp:    0.075K
     -------------------------------------------------------------------
     lambda___(   1 )=       0.231739   gamma___=       0.020061 meV   omega=     10.8159 meV
     lambda_tr(   1 )=       0.245290   gamma_tr=       0.021234 meV   omega=     10.8159 meV
     lambda___(   2 )=       0.121047   gamma___=       0.010681 meV   omega=     10.9201 meV
     lambda_tr(   2 )=       0.137854   gamma_tr=       0.012164 meV   omega=     10.9201 meV
     lambda___(   3 )=       0.124218   gamma___=       0.014681 meV   omega=     12.6380 meV
     lambda_tr(   3 )=       0.134062   gamma_tr=       0.015845 meV   omega=     12.6380 meV
     lambda___( tot )=       0.477004
     lambda_tr( tot )=       0.517206
     -------------------------------------------------------------------


     Number of (k,k+q) pairs on the Fermi surface:     2064 out of     8000


     ismear =     1 iq =      43 coord.:   0.50000  0.10000  0.60000 wt:   1.00000 Temp:    0.075K
     -------------------------------------------------------------------
     lambda___(   1 )=       0.250336   gamma___=       0.021743 meV   omega=     10.8340 meV
     lambda_tr(   1 )=       0.255004   gamma_tr=       0.022149 meV   omega=     10.8340 meV
     lambda___(   2 )=       0.131123   gamma___=       0.011637 meV   omega=     10.9514 meV
     lambda_tr(   2 )=       0.149476   gamma_tr=       0.013266 meV   omega=     10.9514 meV
     lambda___(   3 )=       0.144671   gamma___=       0.016979 meV   omega=     12.5936 meV
     lambda_tr(   3 )=       0.158624   gamma_tr=       0.018616 meV   omega=     12.5936 meV
     lambda___( tot )=       0.526129
     lambda_tr( tot )=       0.563105
     -------------------------------------------------------------------


     Number of (k,k+q) pairs on the Fermi surface:     2018 out of     8000


     ismear =     1 iq =      44 coord.:   0.50000  0.10833  0.60833 wt:   1.00000 Temp:    0.075K
     -------------------------------------------------------------------
     lambda___(   1 )=       0.230851   gamma___=       0.020126 meV   omega=     10.8541 meV
     lambda_tr(   1 )=       0.236896   gamma_tr=       0.020652 meV   omega=     10.8541 meV
     lambda___(   2 )=       0.115378   gamma___=       0.010300 meV   omega=     10.9838 meV
     lambda_tr(   2 )=       0.130459   gamma_tr=       0.011647 meV   omega=     10.9838 meV
     lambda___(   3 )=       0.137687   gamma___=       0.016038 meV   omega=     12.5464 meV
     lambda_tr(   3 )=       0.132756   gamma_tr=       0.015464 meV   omega=     12.5464 meV
     lambda___( tot )=       0.483917
     lambda_tr( tot )=       0.500110
     -------------------------------------------------------------------


     Number of (k,k+q) pairs on the Fermi surface:     1960 out of     8000


     ismear =     1 iq =      45 coord.:   0.50000  0.11667  0.61667 wt:   1.00000 Temp:    0.075K
     -------------------------------------------------------------------
     lambda___(   1 )=       0.198477   gamma___=       0.017374 meV   omega=     10.8763 meV
     lambda_tr(   1 )=       0.215431   gamma_tr=       0.018858 meV   omega=     10.8763 meV
     lambda___(   2 )=       0.099092   gamma___=       0.008900 meV   omega=     11.0168 meV
     lambda_tr(   2 )=       0.116670   gamma_tr=       0.010478 meV   omega=     11.0168 meV
     lambda___(   3 )=       0.150565   gamma___=       0.017399 meV   omega=     12.4964 meV
     lambda_tr(   3 )=       0.148768   gamma_tr=       0.017191 meV   omega=     12.4964 meV
     lambda___( tot )=       0.448134
     lambda_tr( tot )=       0.480870
     -------------------------------------------------------------------


     Number of (k,k+q) pairs on the Fermi surface:     1980 out of     8000


     ismear =     1 iq =      46 coord.:   0.50000  0.12500  0.62500 wt:   1.00000 Temp:    0.075K
     -------------------------------------------------------------------
     lambda___(   1 )=       0.183571   gamma___=       0.016141 meV   omega=     10.9006 meV
     lambda_tr(   1 )=       0.216550   gamma_tr=       0.019041 meV   omega=     10.9006 meV
     lambda___(   2 )=       0.087218   gamma___=       0.007881 meV   omega=     11.0501 meV
     lambda_tr(   2 )=       0.111006   gamma_tr=       0.010030 meV   omega=     11.0501 meV
     lambda___(   3 )=       0.151568   gamma___=       0.017368 meV   omega=     12.4440 meV
     lambda_tr(   3 )=       0.170425   gamma_tr=       0.019529 meV   omega=     12.4440 meV
     lambda___( tot )=       0.422357
     lambda_tr( tot )=       0.497981
     -------------------------------------------------------------------


     Number of (k,k+q) pairs on the Fermi surface:     1937 out of     8000


     ismear =     1 iq =      47 coord.:   0.50000  0.13333  0.63333 wt:   1.00000 Temp:    0.075K
     -------------------------------------------------------------------
     lambda___(   1 )=       0.206731   gamma___=       0.018266 meV   omega=     10.9271 meV
     lambda_tr(   1 )=       0.241288   gamma_tr=       0.021319 meV   omega=     10.9271 meV
     lambda___(   2 )=       0.079463   gamma___=       0.007223 meV   omega=     11.0832 meV
     lambda_tr(   2 )=       0.106031   gamma_tr=       0.009638 meV   omega=     11.0832 meV
     lambda___(   3 )=       0.169102   gamma___=       0.019208 meV   omega=     12.3894 meV
     lambda_tr(   3 )=       0.189951   gamma_tr=       0.021576 meV   omega=     12.3894 meV
     lambda___( tot )=       0.455297
     lambda_tr( tot )=       0.537270
     -------------------------------------------------------------------


     Number of (k,k+q) pairs on the Fermi surface:     1901 out of     8000


     ismear =     1 iq =      48 coord.:   0.50000  0.14167  0.64167 wt:   1.00000 Temp:    0.075K
     -------------------------------------------------------------------
     lambda___(   1 )=       0.245675   gamma___=       0.021821 meV   omega=     10.9559 meV
     lambda_tr(   1 )=       0.276867   gamma_tr=       0.024592 meV   omega=     10.9559 meV
     lambda___(   2 )=       0.076849   gamma___=       0.007027 meV   omega=     11.1160 meV
     lambda_tr(   2 )=       0.106023   gamma_tr=       0.009694 meV   omega=     11.1160 meV
     lambda___(   3 )=       0.186724   gamma___=       0.021016 meV   omega=     12.3328 meV
     lambda_tr(   3 )=       0.187214   gamma_tr=       0.021071 meV   omega=     12.3328 meV
     lambda___( tot )=       0.509248
     lambda_tr( tot )=       0.570104
     -------------------------------------------------------------------


     Number of (k,k+q) pairs on the Fermi surface:     1863 out of     8000


     ismear =     1 iq =      49 coord.:   0.50000  0.15000  0.65000 wt:   1.00000 Temp:    0.075K
     -------------------------------------------------------------------
     lambda___(   1 )=       0.261483   gamma___=       0.023357 meV   omega=     10.9870 meV
     lambda_tr(   1 )=       0.307829   gamma_tr=       0.027497 meV   omega=     10.9870 meV
     lambda___(   2 )=       0.075665   gamma___=       0.006958 meV   omega=     11.1478 meV
     lambda_tr(   2 )=       0.108922   gamma_tr=       0.010017 meV   omega=     11.1478 meV
     lambda___(   3 )=       0.204204   gamma___=       0.022767 meV   omega=     12.2745 meV
     lambda_tr(   3 )=       0.202558   gamma_tr=       0.022583 meV   omega=     12.2745 meV
     lambda___( tot )=       0.541351
     lambda_tr( tot )=       0.619310
     -------------------------------------------------------------------


     Number of (k,k+q) pairs on the Fermi surface:     1828 out of     8000


     ismear =     1 iq =      50 coord.:   0.50000  0.15833  0.65833 wt:   1.00000 Temp:    0.075K
     -------------------------------------------------------------------
     lambda___(   1 )=       0.228808   gamma___=       0.020563 meV   omega=     11.0204 meV
     lambda_tr(   1 )=       0.275930   gamma_tr=       0.024798 meV   omega=     11.0204 meV
     lambda___(   2 )=       0.075923   gamma___=       0.007021 meV   omega=     11.1786 meV
     lambda_tr(   2 )=       0.105155   gamma_tr=       0.009724 meV   omega=     11.1786 meV
     lambda___(   3 )=       0.189326   gamma___=       0.020903 meV   omega=     12.2148 meV
     lambda_tr(   3 )=       0.189412   gamma_tr=       0.020912 meV   omega=     12.2148 meV
     lambda___( tot )=       0.494057
     lambda_tr( tot )=       0.570497
     -------------------------------------------------------------------


     Number of (k,k+q) pairs on the Fermi surface:     1810 out of     8000


     ismear =     1 iq =      51 coord.:   0.50000  0.16667  0.66667 wt:   1.00000 Temp:    0.075K
     -------------------------------------------------------------------
     lambda___(   1 )=       0.196397   gamma___=       0.017765 meV   omega=     11.0562 meV
     lambda_tr(   1 )=       0.230971   gamma_tr=       0.020893 meV   omega=     11.0562 meV
     lambda___(   2 )=       0.077185   gamma___=       0.007175 meV   omega=     11.2078 meV
     lambda_tr(   2 )=       0.097930   gamma_tr=       0.009103 meV   omega=     11.2078 meV
     lambda___(   3 )=       0.153254   gamma___=       0.016752 meV   omega=     12.1539 meV
     lambda_tr(   3 )=       0.158015   gamma_tr=       0.017272 meV   omega=     12.1539 meV
     lambda___( tot )=       0.426836
     lambda_tr( tot )=       0.486916
     -------------------------------------------------------------------


     Number of (k,k+q) pairs on the Fermi surface:     1836 out of     8000


     ismear =     1 iq =      52 coord.:   0.50000  0.17500  0.67500 wt:   1.00000 Temp:    0.075K
     -------------------------------------------------------------------
     lambda___(   1 )=       0.202550   gamma___=       0.018449 meV   omega=     11.0944 meV
     lambda_tr(   1 )=       0.222394   gamma_tr=       0.020256 meV   omega=     11.0944 meV
     lambda___(   2 )=       0.076001   gamma___=       0.007099 meV   omega=     11.2353 meV
     lambda_tr(   2 )=       0.089548   gamma_tr=       0.008365 meV   omega=     11.2353 meV
     lambda___(   3 )=       0.120655   gamma___=       0.013055 meV   omega=     12.0921 meV
     lambda_tr(   3 )=       0.135291   gamma_tr=       0.014638 meV   omega=     12.0921 meV
     lambda___( tot )=       0.399205
     lambda_tr( tot )=       0.447232
     -------------------------------------------------------------------


     Number of (k,k+q) pairs on the Fermi surface:     1811 out of     8000


     ismear =     1 iq =      53 coord.:   0.50000  0.18333  0.68333 wt:   1.00000 Temp:    0.075K
     -------------------------------------------------------------------
     lambda___(   1 )=       0.238767   gamma___=       0.021906 meV   omega=     11.1349 meV
     lambda_tr(   1 )=       0.252583   gamma_tr=       0.023174 meV   omega=     11.1349 meV
     lambda___(   2 )=       0.092364   gamma___=       0.008667 meV   omega=     11.2607 meV
     lambda_tr(   2 )=       0.098221   gamma_tr=       0.009216 meV   omega=     11.2607 meV
     lambda___(   3 )=       0.113990   gamma___=       0.012207 meV   omega=     12.0296 meV
     lambda_tr(   3 )=       0.140526   gamma_tr=       0.015048 meV   omega=     12.0296 meV
     lambda___( tot )=       0.445121
     lambda_tr( tot )=       0.491330
     -------------------------------------------------------------------


     Number of (k,k+q) pairs on the Fermi surface:     1785 out of     8000


     ismear =     1 iq =      54 coord.:   0.50000  0.19167  0.69167 wt:   1.00000 Temp:    0.075K
     -------------------------------------------------------------------
     lambda___(   1 )=       0.291457   gamma___=       0.026947 meV   omega=     11.1778 meV
     lambda_tr(   1 )=       0.319027   gamma_tr=       0.029496 meV   omega=     11.1778 meV
     lambda___(   2 )=       0.121945   gamma___=       0.011489 meV   omega=     11.2838 meV
     lambda_tr(   2 )=       0.123646   gamma_tr=       0.011650 meV   omega=     11.2838 meV
     lambda___(   3 )=       0.126775   gamma___=       0.013434 meV   omega=     11.9668 meV
     lambda_tr(   3 )=       0.169869   gamma_tr=       0.018001 meV   omega=     11.9668 meV
     lambda___( tot )=       0.540177
     lambda_tr( tot )=       0.612541
     -------------------------------------------------------------------


     Number of (k,k+q) pairs on the Fermi surface:     1777 out of     8000


     ismear =     1 iq =      55 coord.:   0.50000  0.20000  0.70000 wt:   1.00000 Temp:    0.075K
     -------------------------------------------------------------------
     lambda___(   1 )=       0.308787   gamma___=       0.028781 meV   omega=     11.2230 meV
     lambda_tr(   1 )=       0.345224   gamma_tr=       0.032177 meV   omega=     11.2230 meV
     lambda___(   2 )=       0.128899   gamma___=       0.012189 meV   omega=     11.3043 meV
     lambda_tr(   2 )=       0.131189   gamma_tr=       0.012405 meV   omega=     11.3043 meV
     lambda___(   3 )=       0.130796   gamma___=       0.013715 meV   omega=     11.9038 meV
     lambda_tr(   3 )=       0.187080   gamma_tr=       0.019617 meV   omega=     11.9038 meV
     lambda___( tot )=       0.568482
     lambda_tr( tot )=       0.663492
     -------------------------------------------------------------------


     Number of (k,k+q) pairs on the Fermi surface:     1770 out of     8000


     ismear =     1 iq =      56 coord.:   0.50000  0.20833  0.70833 wt:   1.00000 Temp:    0.075K
     -------------------------------------------------------------------
     lambda___(   1 )=       0.256515   gamma___=       0.024111 meV   omega=     11.2704 meV
     lambda_tr(   1 )=       0.293263   gamma_tr=       0.027565 meV   omega=     11.2704 meV
     lambda___(   2 )=       0.105801   gamma___=       0.010036 meV   omega=     11.3220 meV
     lambda_tr(   2 )=       0.107207   gamma_tr=       0.010169 meV   omega=     11.3220 meV
     lambda___(   3 )=       0.130799   gamma___=       0.013571 meV   omega=     11.8410 meV
     lambda_tr(   3 )=       0.188421   gamma_tr=       0.019549 meV   omega=     11.8410 meV
     lambda___( tot )=       0.493115
     lambda_tr( tot )=       0.588891
     -------------------------------------------------------------------


     Number of (k,k+q) pairs on the Fermi surface:     1754 out of     8000


     ismear =     1 iq =      57 coord.:   0.50000  0.21667  0.71667 wt:   1.00000 Temp:    0.075K
     -------------------------------------------------------------------
     lambda___(   1 )=       0.197003   gamma___=       0.018681 meV   omega=     11.3200 meV
     lambda_tr(   1 )=       0.232494   gamma_tr=       0.022046 meV   omega=     11.3200 meV
     lambda___(   2 )=       0.083562   gamma___=       0.007947 meV   omega=     11.3367 meV
     lambda_tr(   2 )=       0.078929   gamma_tr=       0.007506 meV   omega=     11.3367 meV
     lambda___(   3 )=       0.130723   gamma___=       0.013420 meV   omega=     11.7786 meV
     lambda_tr(   3 )=       0.183763   gamma_tr=       0.018866 meV   omega=     11.7786 meV
     lambda___( tot )=       0.411288
     lambda_tr( tot )=       0.495186
     -------------------------------------------------------------------


     Number of (k,k+q) pairs on the Fermi surface:     1758 out of     8000


     ismear =     1 iq =      58 coord.:   0.50000  0.22500  0.72500 wt:   1.00000 Temp:    0.075K
     -------------------------------------------------------------------
     lambda___(   1 )=       0.076421   gamma___=       0.007283 meV   omega=     11.3483 meV
     lambda_tr(   1 )=       0.058446   gamma_tr=       0.005570 meV   omega=     11.3483 meV
     lambda___(   2 )=       0.168690   gamma___=       0.016142 meV   omega=     11.3716 meV
     lambda_tr(   2 )=       0.196856   gamma_tr=       0.018837 meV   omega=     11.3716 meV
     lambda___(   3 )=       0.110285   gamma___=       0.011204 meV   omega=     11.7169 meV
     lambda_tr(   3 )=       0.159535   gamma_tr=       0.016207 meV   omega=     11.7169 meV
     lambda___( tot )=       0.355396
     lambda_tr( tot )=       0.414836
     -------------------------------------------------------------------


     Number of (k,k+q) pairs on the Fermi surface:     1753 out of     8000


     ismear =     1 iq =      59 coord.:   0.50000  0.23333  0.73333 wt:   1.00000 Temp:    0.075K
     -------------------------------------------------------------------
     lambda___(   1 )=       0.070947   gamma___=       0.006771 meV   omega=     11.3567 meV
     lambda_tr(   1 )=       0.046480   gamma_tr=       0.004436 meV   omega=     11.3567 meV
     lambda___(   2 )=       0.156548   gamma___=       0.015122 meV   omega=     11.4252 meV
     lambda_tr(   2 )=       0.180927   gamma_tr=       0.017477 meV   omega=     11.4252 meV
     lambda___(   3 )=       0.098936   gamma___=       0.009947 meV   omega=     11.6560 meV
     lambda_tr(   3 )=       0.145710   gamma_tr=       0.014649 meV   omega=     11.6560 meV
     lambda___( tot )=       0.326431
     lambda_tr( tot )=       0.373116
     -------------------------------------------------------------------


     Number of (k,k+q) pairs on the Fermi surface:     1737 out of     8000


     ismear =     1 iq =      60 coord.:   0.50000  0.24167  0.74167 wt:   1.00000 Temp:    0.075K
     -------------------------------------------------------------------
     lambda___(   1 )=       0.046911   gamma___=       0.004481 meV   omega=     11.3617 meV
     lambda_tr(   1 )=       0.038824   gamma_tr=       0.003709 meV   omega=     11.3617 meV
     lambda___(   2 )=       0.126547   gamma___=       0.012343 meV   omega=     11.4806 meV
     lambda_tr(   2 )=       0.164686   gamma_tr=       0.016063 meV   omega=     11.4806 meV
     lambda___(   3 )=       0.095353   gamma___=       0.009488 meV   omega=     11.5962 meV
     lambda_tr(   3 )=       0.145863   gamma_tr=       0.014514 meV   omega=     11.5962 meV
     lambda___( tot )=       0.268811
     lambda_tr( tot )=       0.349373
     -------------------------------------------------------------------


     Number of (k,k+q) pairs on the Fermi surface:     1731 out of     8000


     ismear =     1 iq =      61 coord.:   0.50000  0.25000  0.75000 wt:   1.00000 Temp:    0.075K
     -------------------------------------------------------------------
     lambda___(   1 )=       0.034135   gamma___=       0.003262 meV   omega=     11.3634 meV
     lambda_tr(   1 )=       0.037269   gamma_tr=       0.003561 meV   omega=     11.3634 meV
     lambda___(   2 )=       0.101667   gamma___=       0.010015 meV   omega=     11.5377 meV
     lambda_tr(   2 )=       0.153765   gamma_tr=       0.015147 meV   omega=     11.5377 meV
     lambda___(   3 )=       0.101667   gamma___=       0.010015 meV   omega=     11.5377 meV
     lambda_tr(   3 )=       0.153765   gamma_tr=       0.015147 meV   omega=     11.5377 meV
     lambda___( tot )=       0.237469
     lambda_tr( tot )=       0.344798
     -------------------------------------------------------------------


     Number of (k,k+q) pairs on the Fermi surface:     1744 out of     8000


     ismear =     1 iq =      62 coord.:   0.50000  0.25833  0.74167 wt:   1.00000 Temp:    0.075K
     -------------------------------------------------------------------
     lambda___(   1 )=       0.074382   gamma___=       0.007036 meV   omega=     11.3061 meV
     lambda_tr(   1 )=       0.065490   gamma_tr=       0.006195 meV   omega=     11.3061 meV
     lambda___(   2 )=       0.150570   gamma___=       0.014817 meV   omega=     11.5320 meV
     lambda_tr(   2 )=       0.209614   gamma_tr=       0.020628 meV   omega=     11.5320 meV
     lambda___(   3 )=       0.105473   gamma___=       0.010494 meV   omega=     11.5957 meV
     lambda_tr(   3 )=       0.151494   gamma_tr=       0.015073 meV   omega=     11.5957 meV
     lambda___( tot )=       0.330425
     lambda_tr( tot )=       0.426599
     -------------------------------------------------------------------


     Number of (k,k+q) pairs on the Fermi surface:     1741 out of     8000


     ismear =     1 iq =      63 coord.:   0.50000  0.26667  0.73333 wt:   1.00000 Temp:    0.075K
     -------------------------------------------------------------------
     lambda___(   1 )=       0.127225   gamma___=       0.011820 meV   omega=     11.2048 meV
     lambda_tr(   1 )=       0.101497   gamma_tr=       0.009430 meV   omega=     11.2048 meV
     lambda___(   2 )=       0.202416   gamma___=       0.019861 meV   omega=     11.5149 meV
     lambda_tr(   2 )=       0.242720   gamma_tr=       0.023815 meV   omega=     11.5149 meV
     lambda___(   3 )=       0.127413   gamma___=       0.012904 meV   omega=     11.6988 meV
     lambda_tr(   3 )=       0.136389   gamma_tr=       0.013813 meV   omega=     11.6988 meV
     lambda___( tot )=       0.457055
     lambda_tr( tot )=       0.480606
     -------------------------------------------------------------------


     Number of (k,k+q) pairs on the Fermi surface:     1735 out of     8000


     ismear =     1 iq =      64 coord.:   0.50000  0.27500  0.72500 wt:   1.00000 Temp:    0.075K
     -------------------------------------------------------------------
     lambda___(   1 )=       0.106094   gamma___=       0.009667 meV   omega=     11.0965 meV
     lambda_tr(   1 )=       0.086182   gamma_tr=       0.007853 meV   omega=     11.0965 meV
     lambda___(   2 )=       0.123844   gamma___=       0.012092 meV   omega=     11.4866 meV
     lambda_tr(   2 )=       0.134027   gamma_tr=       0.013086 meV   omega=     11.4866 meV
     lambda___(   3 )=       0.139992   gamma___=       0.014449 meV   omega=     11.8103 meV
     lambda_tr(   3 )=       0.124553   gamma_tr=       0.012856 meV   omega=     11.8103 meV
     lambda___( tot )=       0.369930
     lambda_tr( tot )=       0.344762
     -------------------------------------------------------------------


     Number of (k,k+q) pairs on the Fermi surface:     1721 out of     8000


     ismear =     1 iq =      65 coord.:   0.50000  0.28333  0.71667 wt:   1.00000 Temp:    0.075K
     -------------------------------------------------------------------
     lambda___(   1 )=       0.096656   gamma___=       0.008634 meV   omega=     10.9870 meV
     lambda_tr(   1 )=       0.100289   gamma_tr=       0.008959 meV   omega=     10.9870 meV
     lambda___(   2 )=       0.153534   gamma___=       0.014888 meV   omega=     11.4474 meV
     lambda_tr(   2 )=       0.196054   gamma_tr=       0.019011 meV   omega=     11.4474 meV
     lambda___(   3 )=       0.132692   gamma___=       0.013961 meV   omega=     11.9242 meV
     lambda_tr(   3 )=       0.122669   gamma_tr=       0.012907 meV   omega=     11.9242 meV
     lambda___( tot )=       0.382882
     lambda_tr( tot )=       0.419012
     -------------------------------------------------------------------


     Number of (k,k+q) pairs on the Fermi surface:     1705 out of     8000


     ismear =     1 iq =      66 coord.:   0.50000  0.29167  0.70833 wt:   1.00000 Temp:    0.075K
     -------------------------------------------------------------------
     lambda___(   1 )=       0.090971   gamma___=       0.007966 meV   omega=     10.8779 meV
     lambda_tr(   1 )=       0.101412   gamma_tr=       0.008880 meV   omega=     10.8779 meV
     lambda___(   2 )=       0.115433   gamma___=       0.011096 meV   omega=     11.3974 meV
     lambda_tr(   2 )=       0.119724   gamma_tr=       0.011509 meV   omega=     11.3974 meV
     lambda___(   3 )=       0.089276   gamma___=       0.009575 meV   omega=     12.0387 meV
     lambda_tr(   3 )=       0.107307   gamma_tr=       0.011508 meV   omega=     12.0387 meV
     lambda___( tot )=       0.295681
     lambda_tr( tot )=       0.328442
     -------------------------------------------------------------------


     Number of (k,k+q) pairs on the Fermi surface:     1681 out of     8000


     ismear =     1 iq =      67 coord.:   0.50000  0.30000  0.70000 wt:   1.00000 Temp:    0.075K
     -------------------------------------------------------------------
     lambda___(   1 )=       0.080195   gamma___=       0.006883 meV   omega=     10.7700 meV
     lambda_tr(   1 )=       0.083490   gamma_tr=       0.007166 meV   omega=     10.7700 meV
     lambda___(   2 )=       0.091169   gamma___=       0.008671 meV   omega=     11.3372 meV
     lambda_tr(   2 )=       0.079594   gamma_tr=       0.007570 meV   omega=     11.3372 meV
     lambda___(   3 )=       0.076764   gamma___=       0.008390 meV   omega=     12.1532 meV
     lambda_tr(   3 )=       0.094853   gamma_tr=       0.010367 meV   omega=     12.1532 meV
     lambda___( tot )=       0.248129
     lambda_tr( tot )=       0.257937
     -------------------------------------------------------------------


     Number of (k,k+q) pairs on the Fermi surface:     1666 out of     8000


     ismear =     1 iq =      68 coord.:   0.50000  0.30833  0.69167 wt:   1.00000 Temp:    0.075K
     -------------------------------------------------------------------
     lambda___(   1 )=       0.084116   gamma___=       0.007078 meV   omega=     10.6636 meV
     lambda_tr(   1 )=       0.088720   gamma_tr=       0.007465 meV   omega=     10.6636 meV
     lambda___(   2 )=       0.100459   gamma___=       0.009437 meV   omega=     11.2672 meV
     lambda_tr(   2 )=       0.088091   gamma_tr=       0.008275 meV   omega=     11.2672 meV
     lambda___(   3 )=       0.121031   gamma___=       0.013477 meV   omega=     12.2670 meV
     lambda_tr(   3 )=       0.114382   gamma_tr=       0.012737 meV   omega=     12.2670 meV
     lambda___( tot )=       0.305605
     lambda_tr( tot )=       0.291193
     -------------------------------------------------------------------


     Number of (k,k+q) pairs on the Fermi surface:     1689 out of     8000


     ismear =     1 iq =      69 coord.:   0.50000  0.31667  0.68333 wt:   1.00000 Temp:    0.075K
     -------------------------------------------------------------------
     lambda___(   1 )=       0.114836   gamma___=       0.009474 meV   omega=     10.5590 meV
     lambda_tr(   1 )=       0.127923   gamma_tr=       0.010554 meV   omega=     10.5590 meV
     lambda___(   2 )=       0.144833   gamma___=       0.013415 meV   omega=     11.1881 meV
     lambda_tr(   2 )=       0.140209   gamma_tr=       0.012987 meV   omega=     11.1881 meV
     lambda___(   3 )=       0.147022   gamma___=       0.016674 meV   omega=     12.3798 meV
     lambda_tr(   3 )=       0.095200   gamma_tr=       0.010797 meV   omega=     12.3798 meV
     lambda___( tot )=       0.406692
     lambda_tr( tot )=       0.363332
     -------------------------------------------------------------------


     Number of (k,k+q) pairs on the Fermi surface:     1706 out of     8000


     ismear =     1 iq =      70 coord.:   0.50000  0.32500  0.67500 wt:   1.00000 Temp:    0.075K
     -------------------------------------------------------------------
     lambda___(   1 )=       0.113100   gamma___=       0.009151 meV   omega=     10.4566 meV
     lambda_tr(   1 )=       0.114600   gamma_tr=       0.009272 meV   omega=     10.4566 meV
     lambda___(   2 )=       0.129603   gamma___=       0.011817 meV   omega=     11.1005 meV
     lambda_tr(   2 )=       0.115744   gamma_tr=       0.010554 meV   omega=     11.1005 meV
     lambda___(   3 )=       0.106725   gamma___=       0.012322 meV   omega=     12.4911 meV
     lambda_tr(   3 )=       0.078850   gamma_tr=       0.009104 meV   omega=     12.4911 meV
     lambda___( tot )=       0.349429
     lambda_tr( tot )=       0.309194
     -------------------------------------------------------------------


     Number of (k,k+q) pairs on the Fermi surface:     1744 out of     8000


     ismear =     1 iq =      71 coord.:   0.50000  0.33333  0.66667 wt:   1.00000 Temp:    0.075K
     -------------------------------------------------------------------
     lambda___(   1 )=       0.137441   gamma___=       0.010909 meV   omega=     10.3566 meV
     lambda_tr(   1 )=       0.135587   gamma_tr=       0.010762 meV   omega=     10.3566 meV
     lambda___(   2 )=       0.129605   gamma___=       0.011615 meV   omega=     11.0051 meV
     lambda_tr(   2 )=       0.115449   gamma_tr=       0.010347 meV   omega=     11.0051 meV
     lambda___(   3 )=       0.153495   gamma___=       0.018034 meV   omega=     12.6006 meV
     lambda_tr(   3 )=       0.123109   gamma_tr=       0.014464 meV   omega=     12.6006 meV
     lambda___( tot )=       0.420540
     lambda_tr( tot )=       0.374145
     -------------------------------------------------------------------


     Number of (k,k+q) pairs on the Fermi surface:     1761 out of     8000


     ismear =     1 iq =      72 coord.:   0.50000  0.34167  0.65833 wt:   1.00000 Temp:    0.075K
     -------------------------------------------------------------------
     lambda___(   1 )=       0.136622   gamma___=       0.010641 meV   omega=     10.2591 meV
     lambda_tr(   1 )=       0.128640   gamma_tr=       0.010019 meV   omega=     10.2591 meV
     lambda___(   2 )=       0.107182   gamma___=       0.009428 meV   omega=     10.9029 meV
     lambda_tr(   2 )=       0.081691   gamma_tr=       0.007186 meV   omega=     10.9029 meV
     lambda___(   3 )=       0.109160   gamma___=       0.013045 meV   omega=     12.7079 meV
     lambda_tr(   3 )=       0.101347   gamma_tr=       0.012111 meV   omega=     12.7079 meV
     lambda___( tot )=       0.352964
     lambda_tr( tot )=       0.311677
     -------------------------------------------------------------------


     Number of (k,k+q) pairs on the Fermi surface:     1767 out of     8000


     ismear =     1 iq =      73 coord.:   0.50000  0.35000  0.65000 wt:   1.00000 Temp:    0.075K
     -------------------------------------------------------------------
     lambda___(   1 )=       0.147890   gamma___=       0.011307 meV   omega=     10.1645 meV
     lambda_tr(   1 )=       0.138239   gamma_tr=       0.010569 meV   omega=     10.1645 meV
     lambda___(   2 )=       0.133026   gamma___=       0.011471 meV   omega=     10.7948 meV
     lambda_tr(   2 )=       0.116420   gamma_tr=       0.010039 meV   omega=     10.7948 meV
     lambda___(   3 )=       0.080910   gamma___=       0.009829 meV   omega=     12.8126 meV
     lambda_tr(   3 )=       0.084858   gamma_tr=       0.010308 meV   omega=     12.8126 meV
     lambda___( tot )=       0.361826
     lambda_tr( tot )=       0.339517
     -------------------------------------------------------------------


     Number of (k,k+q) pairs on the Fermi surface:     1786 out of     8000


     ismear =     1 iq =      74 coord.:   0.50000  0.35833  0.64167 wt:   1.00000 Temp:    0.075K
     -------------------------------------------------------------------
     lambda___(   1 )=       0.130913   gamma___=       0.009829 meV   omega=     10.0730 meV
     lambda_tr(   1 )=       0.129657   gamma_tr=       0.009735 meV   omega=     10.0730 meV
     lambda___(   2 )=       0.161229   gamma___=       0.013613 meV   omega=     10.6818 meV
     lambda_tr(   2 )=       0.129375   gamma_tr=       0.010924 meV   omega=     10.6818 meV
     lambda___(   3 )=       0.092516   gamma___=       0.011418 meV   omega=     12.9144 meV
     lambda_tr(   3 )=       0.085588   gamma_tr=       0.010563 meV   omega=     12.9144 meV
     lambda___( tot )=       0.384658
     lambda_tr( tot )=       0.344620
     -------------------------------------------------------------------


     Number of (k,k+q) pairs on the Fermi surface:     1811 out of     8000


     ismear =     1 iq =      75 coord.:   0.50000  0.36667  0.63333 wt:   1.00000 Temp:    0.075K
     -------------------------------------------------------------------
     lambda___(   1 )=       0.155110   gamma___=       0.011443 meV   omega=      9.9848 meV
     lambda_tr(   1 )=       0.158389   gamma_tr=       0.011685 meV   omega=      9.9848 meV
     lambda___(   2 )=       0.200350   gamma___=       0.016548 meV   omega=     10.5649 meV
     lambda_tr(   2 )=       0.132628   gamma_tr=       0.010955 meV   omega=     10.5649 meV
     lambda___(   3 )=       0.129550   gamma___=       0.016233 meV   omega=     13.0128 meV
     lambda_tr(   3 )=       0.093631   gamma_tr=       0.011732 meV   omega=     13.0128 meV
     lambda___( tot )=       0.485010
     lambda_tr( tot )=       0.384648
[...]


     Number of (k,k+q) pairs on the Fermi surface:     2154 out of     8000


     ismear =     1 iq =     163 coord.:   0.20000  0.20000  0.20000 wt:   1.00000 Temp:    0.075K
     -------------------------------------------------------------------
     lambda___(   1 )=       0.236202   gamma___=       0.006025 meV   omega=      5.8712 meV
     lambda_tr(   1 )=       0.090938   gamma_tr=       0.002320 meV   omega=      5.8712 meV
     lambda___(   2 )=       0.236202   gamma___=       0.006025 meV   omega=      5.8712 meV
     lambda_tr(   2 )=       0.090938   gamma_tr=       0.002320 meV   omega=      5.8712 meV
     lambda___(   3 )=       0.245962   gamma___=       0.013039 meV   omega=      8.4641 meV
     lambda_tr(   3 )=       0.042485   gamma_tr=       0.002252 meV   omega=      8.4641 meV
     lambda___( tot )=       0.718366
     lambda_tr( tot )=       0.224360
     -------------------------------------------------------------------


     Number of (k,k+q) pairs on the Fermi surface:     2118 out of     8000


     ismear =     1 iq =     164 coord.:   0.21667  0.21667  0.21667 wt:   1.00000 Temp:    0.075K
     -------------------------------------------------------------------
     lambda___(   1 )=       0.132753   gamma___=       0.003838 meV   omega=      6.2502 meV
     lambda_tr(   1 )=       0.056845   gamma_tr=       0.001643 meV   omega=      6.2502 meV
     lambda___(   2 )=       0.132753   gamma___=       0.003838 meV   omega=      6.2502 meV
     lambda_tr(   2 )=       0.056845   gamma_tr=       0.001643 meV   omega=      6.2502 meV
     lambda___(   3 )=       0.267560   gamma___=       0.016168 meV   omega=      9.0367 meV
     lambda_tr(   3 )=       0.045858   gamma_tr=       0.002771 meV   omega=      9.0367 meV
     lambda___( tot )=       0.533066
     lambda_tr( tot )=       0.159548
     -------------------------------------------------------------------


     Number of (k,k+q) pairs on the Fermi surface:     2133 out of     8000


     ismear =     1 iq =     165 coord.:   0.23333  0.23333  0.23333 wt:   1.00000 Temp:    0.075K
     -------------------------------------------------------------------
     lambda___(   1 )=       0.117306   gamma___=       0.003789 meV   omega=      6.6065 meV
     lambda_tr(   1 )=       0.044511   gamma_tr=       0.001438 meV   omega=      6.6065 meV
     lambda___(   2 )=       0.117306   gamma___=       0.003789 meV   omega=      6.6065 meV
     lambda_tr(   2 )=       0.044511   gamma_tr=       0.001438 meV   omega=      6.6065 meV
     lambda___(   3 )=       0.272868   gamma___=       0.018534 meV   omega=      9.5806 meV
     lambda_tr(   3 )=       0.043022   gamma_tr=       0.002922 meV   omega=      9.5806 meV
     lambda___( tot )=       0.507479
     lambda_tr( tot )=       0.132044
     -------------------------------------------------------------------


     Number of (k,k+q) pairs on the Fermi surface:     2097 out of     8000


     ismear =     1 iq =     166 coord.:   0.25000  0.25000  0.25000 wt:   1.00000 Temp:    0.075K
     -------------------------------------------------------------------
     lambda___(   1 )=       0.102525   gamma___=       0.003653 meV   omega=      6.9393 meV
     lambda_tr(   1 )=       0.029009   gamma_tr=       0.001034 meV   omega=      6.9393 meV
     lambda___(   2 )=       0.102525   gamma___=       0.003653 meV   omega=      6.9393 meV
     lambda_tr(   2 )=       0.029009   gamma_tr=       0.001034 meV   omega=      6.9393 meV
     lambda___(   3 )=       0.343426   gamma___=       0.025896 meV   omega=     10.0946 meV
     lambda_tr(   3 )=       0.120049   gamma_tr=       0.009052 meV   omega=     10.0946 meV
     lambda___( tot )=       0.548477
     lambda_tr( tot )=       0.178066
     -------------------------------------------------------------------


     Number of (k,k+q) pairs on the Fermi surface:     2046 out of     8000


     ismear =     1 iq =     167 coord.:   0.26667  0.26667  0.26667 wt:   1.00000 Temp:    0.075K
     -------------------------------------------------------------------
     lambda___(   1 )=       0.092472   gamma___=       0.003595 meV   omega=      7.2485 meV
     lambda_tr(   1 )=       0.033016   gamma_tr=       0.001284 meV   omega=      7.2485 meV
     lambda___(   2 )=       0.092472   gamma___=       0.003595 meV   omega=      7.2485 meV
     lambda_tr(   2 )=       0.033016   gamma_tr=       0.001284 meV   omega=      7.2485 meV
     lambda___(   3 )=       0.315642   gamma___=       0.026134 meV   omega=     10.5778 meV
     lambda_tr(   3 )=       0.122114   gamma_tr=       0.010111 meV   omega=     10.5778 meV
     lambda___( tot )=       0.500586
     lambda_tr( tot )=       0.188146
     -------------------------------------------------------------------


     Number of (k,k+q) pairs on the Fermi surface:     2037 out of     8000


     ismear =     1 iq =     168 coord.:   0.28333  0.28333  0.28333 wt:   1.00000 Temp:    0.075K
     -------------------------------------------------------------------
     lambda___(   1 )=       0.111831   gamma___=       0.004697 meV   omega=      7.5338 meV
     lambda_tr(   1 )=       0.060819   gamma_tr=       0.002554 meV   omega=      7.5338 meV
     lambda___(   2 )=       0.111831   gamma___=       0.004697 meV   omega=      7.5338 meV
     lambda_tr(   2 )=       0.060819   gamma_tr=       0.002554 meV   omega=      7.5338 meV
     lambda___(   3 )=       0.271993   gamma___=       0.024483 meV   omega=     11.0292 meV
     lambda_tr(   3 )=       0.116851   gamma_tr=       0.010518 meV   omega=     11.0292 meV
     lambda___( tot )=       0.495654
     lambda_tr( tot )=       0.238489
     -------------------------------------------------------------------


     Number of (k,k+q) pairs on the Fermi surface:     1992 out of     8000


     ismear =     1 iq =     169 coord.:   0.30000  0.30000  0.30000 wt:   1.00000 Temp:    0.075K
     -------------------------------------------------------------------
     lambda___(   1 )=       0.107014   gamma___=       0.004812 meV   omega=      7.7954 meV
     lambda_tr(   1 )=       0.067481   gamma_tr=       0.003034 meV   omega=      7.7954 meV
     lambda___(   2 )=       0.107014   gamma___=       0.004812 meV   omega=      7.7954 meV
     lambda_tr(   2 )=       0.067481   gamma_tr=       0.003034 meV   omega=      7.7954 meV
     lambda___(   3 )=       0.184564   gamma___=       0.017900 meV   omega=     11.4483 meV
     lambda_tr(   3 )=       0.079053   gamma_tr=       0.007667 meV   omega=     11.4483 meV
     lambda___( tot )=       0.398592
     lambda_tr( tot )=       0.214016
     -------------------------------------------------------------------


     Number of (k,k+q) pairs on the Fermi surface:     1995 out of     8000


     ismear =     1 iq =     170 coord.:   0.31667  0.31667  0.31667 wt:   1.00000 Temp:    0.075K
     -------------------------------------------------------------------
     lambda___(   1 )=       0.106225   gamma___=       0.005073 meV   omega=      8.0333 meV
     lambda_tr(   1 )=       0.070618   gamma_tr=       0.003372 meV   omega=      8.0333 meV
     lambda___(   2 )=       0.106225   gamma___=       0.005073 meV   omega=      8.0333 meV
     lambda_tr(   2 )=       0.070618   gamma_tr=       0.003372 meV   omega=      8.0333 meV
     lambda___(   3 )=       0.164069   gamma___=       0.017004 meV   omega=     11.8346 meV
     lambda_tr(   3 )=       0.089709   gamma_tr=       0.009298 meV   omega=     11.8346 meV
     lambda___( tot )=       0.376519
     lambda_tr( tot )=       0.230946
     -------------------------------------------------------------------


     Number of (k,k+q) pairs on the Fermi surface:     1989 out of     8000


     ismear =     1 iq =     171 coord.:   0.33333  0.33333  0.33333 wt:   1.00000 Temp:    0.075K
     -------------------------------------------------------------------
     lambda___(   1 )=       0.085952   gamma___=       0.004327 meV   omega=      8.2479 meV
     lambda_tr(   1 )=       0.063647   gamma_tr=       0.003204 meV   omega=      8.2479 meV
     lambda___(   2 )=       0.085952   gamma___=       0.004327 meV   omega=      8.2479 meV
     lambda_tr(   2 )=       0.063647   gamma_tr=       0.003204 meV   omega=      8.2479 meV
     lambda___(   3 )=       0.152595   gamma___=       0.016773 meV   omega=     12.1876 meV
     lambda_tr(   3 )=       0.110121   gamma_tr=       0.012104 meV   omega=     12.1876 meV
     lambda___( tot )=       0.324500
     lambda_tr( tot )=       0.237414
     -------------------------------------------------------------------


     Number of (k,k+q) pairs on the Fermi surface:     1905 out of     8000


     ismear =     1 iq =     172 coord.:   0.35000  0.35000  0.35000 wt:   1.00000 Temp:    0.075K
     -------------------------------------------------------------------
     lambda___(   1 )=       0.043943   gamma___=       0.002316 meV   omega=      8.4397 meV
     lambda_tr(   1 )=       0.034293   gamma_tr=       0.001807 meV   omega=      8.4397 meV
     lambda___(   2 )=       0.043943   gamma___=       0.002316 meV   omega=      8.4397 meV
     lambda_tr(   2 )=       0.034293   gamma_tr=       0.001807 meV   omega=      8.4397 meV
     lambda___(   3 )=       0.066135   gamma___=       0.007655 meV   omega=     12.5072 meV
     lambda_tr(   3 )=       0.047203   gamma_tr=       0.005464 meV   omega=     12.5072 meV
     lambda___( tot )=       0.154021
     lambda_tr( tot )=       0.115789
     -------------------------------------------------------------------


     Number of (k,k+q) pairs on the Fermi surface:     1908 out of     8000


     ismear =     1 iq =     173 coord.:   0.36667  0.36667  0.36667 wt:   1.00000 Temp:    0.075K
     -------------------------------------------------------------------
     lambda___(   1 )=       0.050819   gamma___=       0.002787 meV   omega=      8.6091 meV
     lambda_tr(   1 )=       0.045409   gamma_tr=       0.002490 meV   omega=      8.6091 meV
     lambda___(   2 )=       0.050819   gamma___=       0.002787 meV   omega=      8.6091 meV
     lambda_tr(   2 )=       0.045409   gamma_tr=       0.002490 meV   omega=      8.6091 meV
     lambda___(   3 )=       0.064547   gamma___=       0.007817 meV   omega=     12.7930 meV
     lambda_tr(   3 )=       0.064592   gamma_tr=       0.007823 meV   omega=     12.7930 meV
     lambda___( tot )=       0.166184
     lambda_tr( tot )=       0.155410
     -------------------------------------------------------------------


     Number of (k,k+q) pairs on the Fermi surface:     1968 out of     8000


     ismear =     1 iq =     174 coord.:   0.38333  0.38333  0.38333 wt:   1.00000 Temp:    0.075K
     -------------------------------------------------------------------
     lambda___(   1 )=       0.081306   gamma___=       0.004613 meV   omega=      8.7567 meV
     lambda_tr(   1 )=       0.070556   gamma_tr=       0.004003 meV   omega=      8.7567 meV
     lambda___(   2 )=       0.081306   gamma___=       0.004613 meV   omega=      8.7567 meV
     lambda_tr(   2 )=       0.070556   gamma_tr=       0.004003 meV   omega=      8.7567 meV
     lambda___(   3 )=       0.132663   gamma___=       0.016706 meV   omega=     13.0452 meV
     lambda_tr(   3 )=       0.125072   gamma_tr=       0.015750 meV   omega=     13.0452 meV
     lambda___( tot )=       0.295276
     lambda_tr( tot )=       0.266185
     -------------------------------------------------------------------


     Number of (k,k+q) pairs on the Fermi surface:     1983 out of     8000


     ismear =     1 iq =     175 coord.:   0.40000  0.40000  0.40000 wt:   1.00000 Temp:    0.075K
     -------------------------------------------------------------------
     lambda___(   1 )=       0.050190   gamma___=       0.002931 meV   omega=      8.8831 meV
     lambda_tr(   1 )=       0.043552   gamma_tr=       0.002543 meV   omega=      8.8831 meV
     lambda___(   2 )=       0.050190   gamma___=       0.002931 meV   omega=      8.8831 meV
     lambda_tr(   2 )=       0.043552   gamma_tr=       0.002543 meV   omega=      8.8831 meV
     lambda___(   3 )=       0.201410   gamma___=       0.026220 meV   omega=     13.2636 meV
     lambda_tr(   3 )=       0.203039   gamma_tr=       0.026432 meV   omega=     13.2636 meV
     lambda___( tot )=       0.301790
     lambda_tr( tot )=       0.290143
     -------------------------------------------------------------------


     Number of (k,k+q) pairs on the Fermi surface:     2038 out of     8000


     ismear =     1 iq =     176 coord.:   0.41667  0.41667  0.41667 wt:   1.00000 Temp:    0.075K
     -------------------------------------------------------------------
     lambda___(   1 )=       0.061100   gamma___=       0.003653 meV   omega=      8.9888 meV
     lambda_tr(   1 )=       0.061112   gamma_tr=       0.003654 meV   omega=      8.9888 meV
     lambda___(   2 )=       0.061100   gamma___=       0.003653 meV   omega=      8.9888 meV
     lambda_tr(   2 )=       0.061112   gamma_tr=       0.003654 meV   omega=      8.9888 meV
     lambda___(   3 )=       0.156493   gamma___=       0.020943 meV   omega=     13.4482 meV
     lambda_tr(   3 )=       0.130383   gamma_tr=       0.017449 meV   omega=     13.4482 meV
     lambda___( tot )=       0.278693
     lambda_tr( tot )=       0.252606
     -------------------------------------------------------------------


     Number of (k,k+q) pairs on the Fermi surface:     2056 out of     8000


     ismear =     1 iq =     177 coord.:   0.43333  0.43333  0.43333 wt:   1.00000 Temp:    0.075K
     -------------------------------------------------------------------
     lambda___(   1 )=       0.088744   gamma___=       0.005408 meV   omega=      9.0745 meV
     lambda_tr(   1 )=       0.094135   gamma_tr=       0.005736 meV   omega=      9.0745 meV
     lambda___(   2 )=       0.088744   gamma___=       0.005408 meV   omega=      9.0745 meV
     lambda_tr(   2 )=       0.094135   gamma_tr=       0.005736 meV   omega=      9.0745 meV
     lambda___(   3 )=       0.198041   gamma___=       0.027102 meV   omega=     13.5991 meV
     lambda_tr(   3 )=       0.200976   gamma_tr=       0.027504 meV   omega=     13.5991 meV
     lambda___( tot )=       0.375529
     lambda_tr( tot )=       0.389246
     -------------------------------------------------------------------


     Number of (k,k+q) pairs on the Fermi surface:     2083 out of     8000


     ismear =     1 iq =     178 coord.:   0.45000  0.45000  0.45000 wt:   1.00000 Temp:    0.075K
     -------------------------------------------------------------------
     lambda___(   1 )=       0.118017   gamma___=       0.007297 meV   omega=      9.1406 meV
     lambda_tr(   1 )=       0.108668   gamma_tr=       0.006719 meV   omega=      9.1406 meV
     lambda___(   2 )=       0.118017   gamma___=       0.007297 meV   omega=      9.1406 meV
     lambda_tr(   2 )=       0.108668   gamma_tr=       0.006719 meV   omega=      9.1406 meV
     lambda___(   3 )=       0.177800   gamma___=       0.024754 meV   omega=     13.7165 meV
     lambda_tr(   3 )=       0.125769   gamma_tr=       0.017510 meV   omega=     13.7165 meV
     lambda___( tot )=       0.413833
     lambda_tr( tot )=       0.343105
     -------------------------------------------------------------------


     Number of (k,k+q) pairs on the Fermi surface:     2048 out of     8000


     ismear =     1 iq =     179 coord.:   0.46667  0.46667  0.46667 wt:   1.00000 Temp:    0.075K
     -------------------------------------------------------------------
     lambda___(   1 )=       0.084917   gamma___=       0.005304 meV   omega=      9.1876 meV
     lambda_tr(   1 )=       0.065964   gamma_tr=       0.004120 meV   omega=      9.1876 meV
     lambda___(   2 )=       0.084917   gamma___=       0.005304 meV   omega=      9.1876 meV
     lambda_tr(   2 )=       0.065964   gamma_tr=       0.004120 meV   omega=      9.1876 meV
     lambda___(   3 )=       0.169816   gamma___=       0.023932 meV   omega=     13.8002 meV
     lambda_tr(   3 )=       0.122663   gamma_tr=       0.017287 meV   omega=     13.8002 meV
     lambda___( tot )=       0.339649
     lambda_tr( tot )=       0.254590
     -------------------------------------------------------------------


     Number of (k,k+q) pairs on the Fermi surface:     2044 out of     8000


     ismear =     1 iq =     180 coord.:   0.48333  0.48333  0.48333 wt:   1.00000 Temp:    0.075K
     -------------------------------------------------------------------
     lambda___(   1 )=       0.050524   gamma___=       0.003175 meV   omega=      9.2156 meV
     lambda_tr(   1 )=       0.048521   gamma_tr=       0.003049 meV   omega=      9.2156 meV
     lambda___(   2 )=       0.050524   gamma___=       0.003175 meV   omega=      9.2156 meV
     lambda_tr(   2 )=       0.048521   gamma_tr=       0.003049 meV   omega=      9.2156 meV
     lambda___(   3 )=       0.103311   gamma___=       0.014666 meV   omega=     13.8504 meV
     lambda_tr(   3 )=       0.082504   gamma_tr=       0.011712 meV   omega=     13.8504 meV
     lambda___( tot )=       0.204359
     lambda_tr( tot )=       0.179547
     -------------------------------------------------------------------


     Number of (k,k+q) pairs on the Fermi surface:     2044 out of     8000


     ismear =     1 iq =     181 coord.:   0.50000  0.50000  0.50000 wt:   1.00000 Temp:    0.075K
     -------------------------------------------------------------------
     lambda___(   1 )=       0.043191   gamma___=       0.002720 meV   omega=      9.2249 meV
     lambda_tr(   1 )=       0.044787   gamma_tr=       0.002820 meV   omega=      9.2249 meV
     lambda___(   2 )=       0.043191   gamma___=       0.002720 meV   omega=      9.2249 meV
     lambda_tr(   2 )=       0.044787   gamma_tr=       0.002820 meV   omega=      9.2249 meV
     lambda___(   3 )=       0.074068   gamma___=       0.010540 meV   omega=     13.8671 meV
     lambda_tr(   3 )=       0.068781   gamma_tr=       0.009787 meV   omega=     13.8671 meV
     lambda___( tot )=       0.160450
     lambda_tr( tot )=       0.158356
     -------------------------------------------------------------------


     Number of (k,k+q) pairs on the Fermi surface:     2036 out of     8000

System file does not exist
     ===================================================================
     Memory usage:  VmHWM =         0Mb
                   VmPeak =         0Mb
     ===================================================================


     Unfolding on the coarse grid
     elphon_wrap  :      0.00s CPU      0.01s WALL (       1 calls)

     INITIALIZATION: 




     Electron-Phonon interpolation
     ephwann      :     36.30s CPU     38.04s WALL (       1 calls)
     ep-interp    :     36.03s CPU     37.69s WALL (     181 calls)
     PH SELF-ENER :      0.18s CPU      0.19s WALL (     181 calls)

     DynW2B       :      0.00s CPU      0.00s WALL (     181 calls)
     HamW2B       :      6.92s CPU      7.27s WALL (  730642 calls)
     ephW2Bp      :      0.09s CPU      0.16s WALL (     181 calls)
     ephW2B       :      0.98s CPU      1.02s WALL (   83412 calls)
     vmewan2bloch :     21.88s CPU     22.64s WALL (  724000 calls)
     vmewan2bloch :     21.88s CPU     22.64s WALL (  724000 calls)


     Total program execution
     EPW          :     36.30s CPU     38.05s WALL

     ===============================================================================
     The functionality-dependent EPW.bib file was created with suggested citations. 
     Please consider citing the papers listed in EPW.bib.                           
     ===============================================================================
                                                                                    
