
             +---------------------------------------------------+
             |                                                   |
             |                   WANNIER90                       |
             |                                                   |
             +---------------------------------------------------+
             |                                                   |
             |        Welcome to the Maximally-Localized         |
             |        Generalized Wannier Functions code         |
             |            http://www.wannier.org                 |
             |                                                   |
             |                                                   |
             |  Wannier90 Developer Group:                       |
             |    Giovanni Pizzi    (EPFL)                       |
             |    Valerio Vitale    (Cambridge)                  |
             |    David Vanderbilt  (Rutgers University)         |
             |    Nicola Marzari    (EPFL)                       |
             |    Ivo Souza         (Universidad del Pais Vasco) |
             |    Arash A. Mostofi  (Imperial College London)    |
             |    Jonathan R. Yates (University of Oxford)       |
             |                                                   |
             |  For the full list of Wannier90 3.x authors,      |
             |  please check the code documentation and the      |
             |  README on the GitHub page of the code            |
             |                                                   |
             |                                                   |
             |  Please cite                                      |
             |                                                   |
             |  [ref] "Wannier90 as a community code:            |
             |        new features and applications",            |
             |        G. Pizzi et al., J. Phys. Cond. Matt. 32,  |
             |        165902 (2020).                             |
             |        http://doi.org/10.1088/1361-648X/ab51ff    |
             |                                                   |
             |  in any publications arising from the use of      |
             |  this code. For the method please cite            |
             |                                                   |
             |  [ref] "Maximally Localized Generalised Wannier   |
             |         Functions for Composite Energy Bands"     |
             |         N. Marzari and D. Vanderbilt              |
             |         Phys. Rev. B 56 12847 (1997)              |
             |                                                   |
             |  [ref] "Maximally Localized Wannier Functions     |
             |         for Entangled Energy Bands"               |
             |         I. Souza, N. Marzari and D. Vanderbilt    |
             |         Phys. Rev. B 65 035109 (2001)             |
             |                                                   |
             |                                                   |
             | Copyright (c) 1996-2020                           |
             |        The Wannier90 Developer Group and          |
             |        individual contributors                    |
             |                                                   |
             |      Release: 3.1.0        5th March    2020      |
             |                                                   |
             | This program is free software; you can            |
             | redistribute it and/or modify it under the terms  |
             | of the GNU General Public License as published by |
             | the Free Software Foundation; either version 2 of |
             | the License, or (at your option) any later version|
             |                                                   |
             | This program is distributed in the hope that it   |
             | will be useful, but WITHOUT ANY WARRANTY; without |
             | even the implied warranty of MERCHANTABILITY or   |
             | FITNESS FOR A PARTICULAR PURPOSE. See the GNU     |
             | General Public License for more details.          |
             |                                                   |
             | You should have received a copy of the GNU General|
             | Public License along with this program; if not,   |
             | write to the Free Software Foundation, Inc.,      |
             | 675 Mass Ave, Cambridge, MA 02139, USA.           |
             |                                                   |
             +---------------------------------------------------+
             |    Execution started on 15Jun2021 at 20:04:08     |
             +---------------------------------------------------+
 
 ******************************************************************************
 * -> Using CODATA 2006 constant values                                       *
 *    (http://physics.nist.gov/cuu/Constants/index.html)                      *
 * -> Using Bohr value from CODATA                                            *
 ******************************************************************************
 

 Wannier90 is running in LIBRARY MODE

 Setting up k-point neighbours...


                                    ------
                                    SYSTEM
                                    ------

                              Lattice Vectors (Ang)
                    a_1    -2.440184   0.000000   2.440184
                    a_2     0.000000   2.440184   2.440184
                    a_3    -2.440184   2.440184   0.000000

                   Unit Cell Volume:      29.06014  (Ang^3)

                        Reciprocal-Space Vectors (Ang^-1)
                    b_1    -1.287441  -1.287441   1.287441
                    b_2     1.287441   1.287441   1.287441
                    b_3    -1.287441   1.287441  -1.287441
  
 *----------------------------------------------------------------------------*
 |   Site       Fractional Coordinate          Cartesian Coordinate (Ang)     |
 +----------------------------------------------------------------------------+
 | Pb   1   0.00000   0.00000   0.00000   |    0.00000   0.00000   0.00000    |
 *----------------------------------------------------------------------------*
                                -----------
                                PROJECTIONS
                                -----------
  
 +----------------------------------------------------------------------------+
 |     Frac. Coord.   l mr  r        z-axis               x-axis          Z/a |
 +----------------------------------------------------------------------------+
 |  0.00  0.00  0.00 -3  1  1  0.000  0.000  1.000  1.000  0.000  0.000   1.0 |
 |  0.00  0.00  0.00 -3  2  1  0.000  0.000  1.000  1.000  0.000  0.000   1.0 |
 |  0.00  0.00  0.00 -3  3  1  0.000  0.000  1.000  1.000  0.000  0.000   1.0 |
 |  0.00  0.00  0.00 -3  4  1  0.000  0.000  1.000  1.000  0.000  0.000   1.0 |
 +----------------------------------------------------------------------------+
  
                                ------------
                                K-POINT GRID
                                ------------
  
             Grid size =  6 x  6 x  6      Total points =  216
  
 *----------------------------------------------------------------------------*
 | k-point      Fractional Coordinate        Cartesian Coordinate (Ang^-1)    |
 +----------------------------------------------------------------------------+
 |     1    0.00000   0.00000   0.00000   |    0.00000   0.00000   0.00000    |
 |     2    0.00000   0.00000   0.16667   |   -0.21457   0.21457  -0.21457    |
 |     3    0.00000   0.00000   0.33333   |   -0.42915   0.42915  -0.42915    |
 |     4    0.00000   0.00000   0.50000   |   -0.64372   0.64372  -0.64372    |
 |     5    0.00000   0.00000   0.66667   |   -0.85829   0.85829  -0.85829    |
 |     6    0.00000   0.00000   0.83333   |   -1.07287   1.07287  -1.07287    |
 |     7    0.00000   0.16667   0.00000   |    0.21457   0.21457   0.21457    |
 |     8    0.00000   0.16667   0.16667   |    0.00000   0.42915   0.00000    |
 |     9    0.00000   0.16667   0.33333   |   -0.21457   0.64372  -0.21457    |
 |    10    0.00000   0.16667   0.50000   |   -0.42915   0.85829  -0.42915    |
 |    11    0.00000   0.16667   0.66667   |   -0.64372   1.07287  -0.64372    |
 |    12    0.00000   0.16667   0.83333   |   -0.85829   1.28744  -0.85829    |
 |    13    0.00000   0.33333   0.00000   |    0.42915   0.42915   0.42915    |
 |    14    0.00000   0.33333   0.16667   |    0.21457   0.64372   0.21457    |
 |    15    0.00000   0.33333   0.33333   |    0.00000   0.85829   0.00000    |
 |    16    0.00000   0.33333   0.50000   |   -0.21457   1.07287  -0.21457    |
 |    17    0.00000   0.33333   0.66667   |   -0.42915   1.28744  -0.42915    |
 |    18    0.00000   0.33333   0.83333   |   -0.64372   1.50201  -0.64372    |
 |    19    0.00000   0.50000   0.00000   |    0.64372   0.64372   0.64372    |
 |    20    0.00000   0.50000   0.16667   |    0.42915   0.85829   0.42915    |
 |    21    0.00000   0.50000   0.33333   |    0.21457   1.07287   0.21457    |
 |    22    0.00000   0.50000   0.50000   |    0.00000   1.28744   0.00000    |
 |    23    0.00000   0.50000   0.66667   |   -0.21457   1.50201  -0.21457    |
 |    24    0.00000   0.50000   0.83333   |   -0.42915   1.71659  -0.42915    |
 |    25    0.00000   0.66667   0.00000   |    0.85829   0.85829   0.85829    |
 |    26    0.00000   0.66667   0.16667   |    0.64372   1.07287   0.64372    |
 |    27    0.00000   0.66667   0.33333   |    0.42915   1.28744   0.42915    |
 |    28    0.00000   0.66667   0.50000   |    0.21457   1.50201   0.21457    |
 |    29    0.00000   0.66667   0.66667   |    0.00000   1.71659   0.00000    |
 |    30    0.00000   0.66667   0.83333   |   -0.21457   1.93116  -0.21457    |
 |    31    0.00000   0.83333   0.00000   |    1.07287   1.07287   1.07287    |
 |    32    0.00000   0.83333   0.16667   |    0.85829   1.28744   0.85829    |
 |    33    0.00000   0.83333   0.33333   |    0.64372   1.50201   0.64372    |
 |    34    0.00000   0.83333   0.50000   |    0.42915   1.71659   0.42915    |
 |    35    0.00000   0.83333   0.66667   |    0.21457   1.93116   0.21457    |
 |    36    0.00000   0.83333   0.83333   |    0.00000   2.14573   0.00000    |
 |    37    0.16667   0.00000   0.00000   |   -0.21457  -0.21457   0.21457    |
 |    38    0.16667   0.00000   0.16667   |   -0.42915   0.00000   0.00000    |
 |    39    0.16667   0.00000   0.33333   |   -0.64372   0.21457  -0.21457    |
 |    40    0.16667   0.00000   0.50000   |   -0.85829   0.42915  -0.42915    |
 |    41    0.16667   0.00000   0.66667   |   -1.07287   0.64372  -0.64372    |
 |    42    0.16667   0.00000   0.83333   |   -1.28744   0.85829  -0.85829    |
 |    43    0.16667   0.16667   0.00000   |    0.00000   0.00000   0.42915    |
 |    44    0.16667   0.16667   0.16667   |   -0.21457   0.21457   0.21457    |
 |    45    0.16667   0.16667   0.33333   |   -0.42915   0.42915   0.00000    |
 |    46    0.16667   0.16667   0.50000   |   -0.64372   0.64372  -0.21457    |
 |    47    0.16667   0.16667   0.66667   |   -0.85829   0.85829  -0.42915    |
 |    48    0.16667   0.16667   0.83333   |   -1.07287   1.07287  -0.64372    |
 |    49    0.16667   0.33333   0.00000   |    0.21457   0.21457   0.64372    |
 |    50    0.16667   0.33333   0.16667   |   -0.00000   0.42915   0.42915    |
 |    51    0.16667   0.33333   0.33333   |   -0.21457   0.64372   0.21457    |
 |    52    0.16667   0.33333   0.50000   |   -0.42915   0.85829   0.00000    |
 |    53    0.16667   0.33333   0.66667   |   -0.64372   1.07287  -0.21457    |
 |    54    0.16667   0.33333   0.83333   |   -0.85829   1.28744  -0.42915    |
 |    55    0.16667   0.50000   0.00000   |    0.42915   0.42915   0.85829    |
 |    56    0.16667   0.50000   0.16667   |    0.21457   0.64372   0.64372    |
 |    57    0.16667   0.50000   0.33333   |    0.00000   0.85829   0.42915    |
 |    58    0.16667   0.50000   0.50000   |   -0.21457   1.07287   0.21457    |
 |    59    0.16667   0.50000   0.66667   |   -0.42915   1.28744   0.00000    |
 |    60    0.16667   0.50000   0.83333   |   -0.64372   1.50201  -0.21457    |
 |    61    0.16667   0.66667   0.00000   |    0.64372   0.64372   1.07287    |
 |    62    0.16667   0.66667   0.16667   |    0.42915   0.85829   0.85829    |
 |    63    0.16667   0.66667   0.33333   |    0.21457   1.07287   0.64372    |
 |    64    0.16667   0.66667   0.50000   |    0.00000   1.28744   0.42915    |
 |    65    0.16667   0.66667   0.66667   |   -0.21457   1.50201   0.21457    |
 |    66    0.16667   0.66667   0.83333   |   -0.42915   1.71659   0.00000    |
 |    67    0.16667   0.83333   0.00000   |    0.85829   0.85829   1.28744    |
 |    68    0.16667   0.83333   0.16667   |    0.64372   1.07287   1.07287    |
 |    69    0.16667   0.83333   0.33333   |    0.42915   1.28744   0.85829    |
 |    70    0.16667   0.83333   0.50000   |    0.21457   1.50201   0.64372    |
 |    71    0.16667   0.83333   0.66667   |   -0.00000   1.71659   0.42915    |
 |    72    0.16667   0.83333   0.83333   |   -0.21457   1.93116   0.21457    |
 |    73    0.33333   0.00000   0.00000   |   -0.42915  -0.42915   0.42915    |
 |    74    0.33333   0.00000   0.16667   |   -0.64372  -0.21457   0.21457    |
 |    75    0.33333   0.00000   0.33333   |   -0.85829   0.00000   0.00000    |
 |    76    0.33333   0.00000   0.50000   |   -1.07287   0.21457  -0.21457    |
 |    77    0.33333   0.00000   0.66667   |   -1.28744   0.42915  -0.42915    |
 |    78    0.33333   0.00000   0.83333   |   -1.50201   0.64372  -0.64372    |
 |    79    0.33333   0.16667   0.00000   |   -0.21457  -0.21457   0.64372    |
 |    80    0.33333   0.16667   0.16667   |   -0.42915   0.00000   0.42915    |
 |    81    0.33333   0.16667   0.33333   |   -0.64372   0.21457   0.21457    |
 |    82    0.33333   0.16667   0.50000   |   -0.85829   0.42915   0.00000    |
 |    83    0.33333   0.16667   0.66667   |   -1.07287   0.64372  -0.21457    |
 |    84    0.33333   0.16667   0.83333   |   -1.28744   0.85829  -0.42915    |
 |    85    0.33333   0.33333   0.00000   |    0.00000   0.00000   0.85829    |
 |    86    0.33333   0.33333   0.16667   |   -0.21457   0.21457   0.64372    |
 |    87    0.33333   0.33333   0.33333   |   -0.42915   0.42915   0.42915    |
 |    88    0.33333   0.33333   0.50000   |   -0.64372   0.64372   0.21457    |
 |    89    0.33333   0.33333   0.66667   |   -0.85829   0.85829  -0.00000    |
 |    90    0.33333   0.33333   0.83333   |   -1.07287   1.07287  -0.21457    |
 |    91    0.33333   0.50000   0.00000   |    0.21457   0.21457   1.07287    |
 |    92    0.33333   0.50000   0.16667   |    0.00000   0.42915   0.85829    |
 |    93    0.33333   0.50000   0.33333   |   -0.21457   0.64372   0.64372    |
 |    94    0.33333   0.50000   0.50000   |   -0.42915   0.85829   0.42915    |
 |    95    0.33333   0.50000   0.66667   |   -0.64372   1.07287   0.21457    |
 |    96    0.33333   0.50000   0.83333   |   -0.85829   1.28744   0.00000    |
 |    97    0.33333   0.66667   0.00000   |    0.42915   0.42915   1.28744    |
 |    98    0.33333   0.66667   0.16667   |    0.21457   0.64372   1.07287    |
 |    99    0.33333   0.66667   0.33333   |    0.00000   0.85829   0.85829    |
 |   100    0.33333   0.66667   0.50000   |   -0.21457   1.07287   0.64372    |
 |   101    0.33333   0.66667   0.66667   |   -0.42915   1.28744   0.42915    |
 |   102    0.33333   0.66667   0.83333   |   -0.64372   1.50201   0.21457    |
 |   103    0.33333   0.83333   0.00000   |    0.64372   0.64372   1.50201    |
 |   104    0.33333   0.83333   0.16667   |    0.42915   0.85829   1.28744    |
 |   105    0.33333   0.83333   0.33333   |    0.21457   1.07287   1.07287    |
 |   106    0.33333   0.83333   0.50000   |    0.00000   1.28744   0.85829    |
 |   107    0.33333   0.83333   0.66667   |   -0.21457   1.50201   0.64372    |
 |   108    0.33333   0.83333   0.83333   |   -0.42915   1.71659   0.42915    |
 |   109    0.50000   0.00000   0.00000   |   -0.64372  -0.64372   0.64372    |
 |   110    0.50000   0.00000   0.16667   |   -0.85829  -0.42915   0.42915    |
 |   111    0.50000   0.00000   0.33333   |   -1.07287  -0.21457   0.21457    |
 |   112    0.50000   0.00000   0.50000   |   -1.28744   0.00000   0.00000    |
 |   113    0.50000   0.00000   0.66667   |   -1.50201   0.21457  -0.21457    |
 |   114    0.50000   0.00000   0.83333   |   -1.71659   0.42915  -0.42915    |
 |   115    0.50000   0.16667   0.00000   |   -0.42915  -0.42915   0.85829    |
 |   116    0.50000   0.16667   0.16667   |   -0.64372  -0.21457   0.64372    |
 |   117    0.50000   0.16667   0.33333   |   -0.85829   0.00000   0.42915    |
 |   118    0.50000   0.16667   0.50000   |   -1.07287   0.21457   0.21457    |
 |   119    0.50000   0.16667   0.66667   |   -1.28744   0.42915   0.00000    |
 |   120    0.50000   0.16667   0.83333   |   -1.50201   0.64372  -0.21457    |
 |   121    0.50000   0.33333   0.00000   |   -0.21457  -0.21457   1.07287    |
 |   122    0.50000   0.33333   0.16667   |   -0.42915   0.00000   0.85829    |
 |   123    0.50000   0.33333   0.33333   |   -0.64372   0.21457   0.64372    |
 |   124    0.50000   0.33333   0.50000   |   -0.85829   0.42915   0.42915    |
 |   125    0.50000   0.33333   0.66667   |   -1.07287   0.64372   0.21457    |
 |   126    0.50000   0.33333   0.83333   |   -1.28744   0.85829   0.00000    |
 |   127    0.50000   0.50000   0.00000   |    0.00000   0.00000   1.28744    |
 |   128    0.50000   0.50000   0.16667   |   -0.21457   0.21457   1.07287    |
 |   129    0.50000   0.50000   0.33333   |   -0.42915   0.42915   0.85829    |
 |   130    0.50000   0.50000   0.50000   |   -0.64372   0.64372   0.64372    |
 |   131    0.50000   0.50000   0.66667   |   -0.85829   0.85829   0.42915    |
 |   132    0.50000   0.50000   0.83333   |   -1.07287   1.07287   0.21457    |
 |   133    0.50000   0.66667   0.00000   |    0.21457   0.21457   1.50201    |
 |   134    0.50000   0.66667   0.16667   |    0.00000   0.42915   1.28744    |
 |   135    0.50000   0.66667   0.33333   |   -0.21457   0.64372   1.07287    |
 |   136    0.50000   0.66667   0.50000   |   -0.42915   0.85829   0.85829    |
 |   137    0.50000   0.66667   0.66667   |   -0.64372   1.07287   0.64372    |
 |   138    0.50000   0.66667   0.83333   |   -0.85829   1.28744   0.42915    |
 |   139    0.50000   0.83333   0.00000   |    0.42915   0.42915   1.71659    |
 |   140    0.50000   0.83333   0.16667   |    0.21457   0.64372   1.50201    |
 |   141    0.50000   0.83333   0.33333   |    0.00000   0.85829   1.28744    |
 |   142    0.50000   0.83333   0.50000   |   -0.21457   1.07287   1.07287    |
 |   143    0.50000   0.83333   0.66667   |   -0.42915   1.28744   0.85829    |
 |   144    0.50000   0.83333   0.83333   |   -0.64372   1.50201   0.64372    |
 |   145    0.66667   0.00000   0.00000   |   -0.85829  -0.85829   0.85829    |
 |   146    0.66667   0.00000   0.16667   |   -1.07287  -0.64372   0.64372    |
 |   147    0.66667   0.00000   0.33333   |   -1.28744  -0.42915   0.42915    |
 |   148    0.66667   0.00000   0.50000   |   -1.50201  -0.21457   0.21457    |
 |   149    0.66667   0.00000   0.66667   |   -1.71659   0.00000   0.00000    |
 |   150    0.66667   0.00000   0.83333   |   -1.93116   0.21457  -0.21457    |
 |   151    0.66667   0.16667   0.00000   |   -0.64372  -0.64372   1.07287    |
 |   152    0.66667   0.16667   0.16667   |   -0.85829  -0.42915   0.85829    |
 |   153    0.66667   0.16667   0.33333   |   -1.07287  -0.21457   0.64372    |
 |   154    0.66667   0.16667   0.50000   |   -1.28744   0.00000   0.42915    |
 |   155    0.66667   0.16667   0.66667   |   -1.50201   0.21457   0.21457    |
 |   156    0.66667   0.16667   0.83333   |   -1.71659   0.42915   0.00000    |
 |   157    0.66667   0.33333   0.00000   |   -0.42915  -0.42915   1.28744    |
 |   158    0.66667   0.33333   0.16667   |   -0.64372  -0.21457   1.07287    |
 |   159    0.66667   0.33333   0.33333   |   -0.85829  -0.00000   0.85829    |
 |   160    0.66667   0.33333   0.50000   |   -1.07287   0.21457   0.64372    |
 |   161    0.66667   0.33333   0.66667   |   -1.28744   0.42915   0.42915    |
 |   162    0.66667   0.33333   0.83333   |   -1.50201   0.64372   0.21457    |
 |   163    0.66667   0.50000   0.00000   |   -0.21457  -0.21457   1.50201    |
 |   164    0.66667   0.50000   0.16667   |   -0.42915   0.00000   1.28744    |
 |   165    0.66667   0.50000   0.33333   |   -0.64372   0.21457   1.07287    |
 |   166    0.66667   0.50000   0.50000   |   -0.85829   0.42915   0.85829    |
 |   167    0.66667   0.50000   0.66667   |   -1.07287   0.64372   0.64372    |
 |   168    0.66667   0.50000   0.83333   |   -1.28744   0.85829   0.42915    |
 |   169    0.66667   0.66667   0.00000   |    0.00000   0.00000   1.71659    |
 |   170    0.66667   0.66667   0.16667   |   -0.21457   0.21457   1.50201    |
 |   171    0.66667   0.66667   0.33333   |   -0.42915   0.42915   1.28744    |
 |   172    0.66667   0.66667   0.50000   |   -0.64372   0.64372   1.07287    |
 |   173    0.66667   0.66667   0.66667   |   -0.85829   0.85829   0.85829    |
 |   174    0.66667   0.66667   0.83333   |   -1.07287   1.07287   0.64372    |
 |   175    0.66667   0.83333   0.00000   |    0.21457   0.21457   1.93116    |
 |   176    0.66667   0.83333   0.16667   |   -0.00000   0.42915   1.71659    |
 |   177    0.66667   0.83333   0.33333   |   -0.21457   0.64372   1.50201    |
 |   178    0.66667   0.83333   0.50000   |   -0.42915   0.85829   1.28744    |
 |   179    0.66667   0.83333   0.66667   |   -0.64372   1.07287   1.07287    |
 |   180    0.66667   0.83333   0.83333   |   -0.85829   1.28744   0.85829    |
 |   181    0.83333   0.00000   0.00000   |   -1.07287  -1.07287   1.07287    |
 |   182    0.83333   0.00000   0.16667   |   -1.28744  -0.85829   0.85829    |
 |   183    0.83333   0.00000   0.33333   |   -1.50201  -0.64372   0.64372    |
 |   184    0.83333   0.00000   0.50000   |   -1.71659  -0.42915   0.42915    |
 |   185    0.83333   0.00000   0.66667   |   -1.93116  -0.21457   0.21457    |
 |   186    0.83333   0.00000   0.83333   |   -2.14573   0.00000   0.00000    |
 |   187    0.83333   0.16667   0.00000   |   -0.85829  -0.85829   1.28744    |
 |   188    0.83333   0.16667   0.16667   |   -1.07287  -0.64372   1.07287    |
 |   189    0.83333   0.16667   0.33333   |   -1.28744  -0.42915   0.85829    |
 |   190    0.83333   0.16667   0.50000   |   -1.50201  -0.21457   0.64372    |
 |   191    0.83333   0.16667   0.66667   |   -1.71659   0.00000   0.42915    |
 |   192    0.83333   0.16667   0.83333   |   -1.93116   0.21457   0.21457    |
 |   193    0.83333   0.33333   0.00000   |   -0.64372  -0.64372   1.50201    |
 |   194    0.83333   0.33333   0.16667   |   -0.85829  -0.42915   1.28744    |
 |   195    0.83333   0.33333   0.33333   |   -1.07287  -0.21457   1.07287    |
 |   196    0.83333   0.33333   0.50000   |   -1.28744   0.00000   0.85829    |
 |   197    0.83333   0.33333   0.66667   |   -1.50201   0.21457   0.64372    |
 |   198    0.83333   0.33333   0.83333   |   -1.71659   0.42915   0.42915    |
 |   199    0.83333   0.50000   0.00000   |   -0.42915  -0.42915   1.71659    |
 |   200    0.83333   0.50000   0.16667   |   -0.64372  -0.21457   1.50201    |
 |   201    0.83333   0.50000   0.33333   |   -0.85829  -0.00000   1.28744    |
 |   202    0.83333   0.50000   0.50000   |   -1.07287   0.21457   1.07287    |
 |   203    0.83333   0.50000   0.66667   |   -1.28744   0.42915   0.85829    |
 |   204    0.83333   0.50000   0.83333   |   -1.50201   0.64372   0.64372    |
 |   205    0.83333   0.66667   0.00000   |   -0.21457  -0.21457   1.93116    |
 |   206    0.83333   0.66667   0.16667   |   -0.42915   0.00000   1.71659    |
 |   207    0.83333   0.66667   0.33333   |   -0.64372   0.21457   1.50201    |
 |   208    0.83333   0.66667   0.50000   |   -0.85829   0.42915   1.28744    |
 |   209    0.83333   0.66667   0.66667   |   -1.07287   0.64372   1.07287    |
 |   210    0.83333   0.66667   0.83333   |   -1.28744   0.85829   0.85829    |
 |   211    0.83333   0.83333   0.00000   |    0.00000   0.00000   2.14573    |
 |   212    0.83333   0.83333   0.16667   |   -0.21457   0.21457   1.93116    |
 |   213    0.83333   0.83333   0.33333   |   -0.42915   0.42915   1.71659    |
 |   214    0.83333   0.83333   0.50000   |   -0.64372   0.64372   1.50201    |
 |   215    0.83333   0.83333   0.66667   |   -0.85829   0.85829   1.28744    |
 |   216    0.83333   0.83333   0.83333   |   -1.07287   1.07287   1.07287    |
 *----------------------------------------------------------------------------*
  
  
 *---------------------------------- MAIN ------------------------------------*
 |  Number of Wannier Functions               :                 4             |
 |  Number of Objective Wannier Functions     :                 4             |
 |  Number of input Bloch states              :                 5             |
 |  Output verbosity (1=low, 5=high)          :                 2             |
 |  Timing Level (1=low, 5=high)              :                 1             |
 |  Optimisation (0=memory, 3=speed)          :                 3             |
 |  Length Unit                               :               Ang             |
 |  Post-processing setup (write *.nnkp)      :                 T             |
 |  Using Gamma-only branch of algorithms     :                 F             |
 *----------------------------------------------------------------------------*
 *------------------------------- WANNIERISE ---------------------------------*
 |  Total number of iterations                :               300             |
 |  Number of CG steps before reset           :                 5             |
 |  Trial step length for line search         :             2.000             |
 |  Convergence tolerence                     :         0.100E-09             |
 |  Convergence window                        :                -1             |
 |  Iterations between writing output         :                 1             |
 |  Iterations between backing up to disk     :               100             |
 |  Write r^2_nm to file                      :                 F             |
 |  Write xyz WF centres to file              :                 F             |
 |  Write on-site energies <0n|H|0n> to file  :                 F             |
 |  Use guiding centre to control phases      :                 F             |
 |  Use phases for initial projections        :                 F             |
 *----------------------------------------------------------------------------*
 *------------------------------- DISENTANGLE --------------------------------*
 |  Using band disentanglement                :                 T             |
 |  Total number of iterations                :               200             |
 |  Mixing ratio                              :             0.500             |
 |  Convergence tolerence                     :         1.000E-10             |
 |  Convergence window                        :                 3             |
 *----------------------------------------------------------------------------*
 *-------------------------------- PLOTTING ----------------------------------*
 |  Plotting Hamiltonian in WF basis          :                 T             |
 *----------------------------------------------------------------------------*
 Time to read parameters        0.002 (sec)

 *---------------------------------- K-MESH ----------------------------------*
 +----------------------------------------------------------------------------+
 |                    Distance to Nearest-Neighbour Shells                    |
 |                    ------------------------------------                    |
 |          Shell             Distance (Ang^-1)          Multiplicity         |
 |          -----             -----------------          ------------         |
 |             1                   0.371652                      8            |
 |             2                   0.429147                      6            |
 |             3                   0.606906                     12            |
 |             4                   0.711660                     24            |
 |             5                   0.743304                      8            |
 |             6                   0.858294                      6            |
 |             7                   0.935304                     24            |
 |             8                   0.959602                     24            |
 |             9                   1.051191                     24            |
 |            10                   1.114957                     32            |
 |            11                   1.213811                     12            |
 |            12                   1.269434                     48            |
 |            13                   1.287441                     30            |
 |            14                   1.357082                     24            |
 |            15                   1.407052                     24            |
 |            16                   1.423320                     24            |
 |            17                   1.486609                      8            |
 |            18                   1.532361                     48            |
 |            19                   1.547311                     24            |
 |            20                   1.605721                     48            |
 |            21                   1.648170                     72            |
 |            22                   1.716588                      6            |
 |            23                   1.756360                     24            |
 |            24                   1.769418                     48            |
 |            25                   1.820716                     36            |
 |            26                   1.858261                     56            |
 |            27                   1.870608                     24            |
 |            28                   1.919204                     24            |
 |            29                   1.954858                     72            |
 |            30                   1.966599                     48            |
 |            31                   2.012878                     24            |
 |            32                   2.046901                     48            |
 |            33                   2.102382                     24            |
 |            34                   2.134979                     72            |
 |            35                   2.145735                     30            |
 |            36                   2.188229                     72            |
 +----------------------------------------------------------------------------+
 | The b-vectors are chosen automatically                                     |
 | Shell:  1 w_b    2.7149251      (Ang^2)                                    |
 | The following shells are used:   1                                         |
 +----------------------------------------------------------------------------+
 |                        Shell   # Nearest-Neighbours                        |
 |                        -----   --------------------                        |
 |                          1               8                                 |
 +----------------------------------------------------------------------------+
 | Completeness relation is fully satisfied [Eq. (B1), PRB 56, 12847 (1997)]  |
 +----------------------------------------------------------------------------+
 |                  b_k Vectors (Ang^-1) and Weights (Ang^2)                  |
 |                  ----------------------------------------                  |
 |            No.         b_k(x)      b_k(y)      b_k(z)        w_b           |
 |            ---        --------------------------------     --------        |
 |             1        -0.214573    0.214573   -0.214573     2.714925        |
 |             2         0.214573    0.214573    0.214573     2.714925        |
 |             3        -0.214573   -0.214573    0.214573     2.714925        |
 |             4        -0.214573    0.214573    0.214573     2.714925        |
 |             5         0.214573   -0.214573    0.214573     2.714925        |
 |             6        -0.214573   -0.214573   -0.214573     2.714925        |
 |             7         0.214573    0.214573   -0.214573     2.714925        |
 |             8         0.214573   -0.214573   -0.214573     2.714925        |
 +----------------------------------------------------------------------------+
 |                           b_k Directions (Ang^-1)                          |
 |                           -----------------------                          |
 |            No.           x           y           z                         |
 |            ---        --------------------------------                     |
 |             1        -0.214573    0.214573   -0.214573                     |
 |             2         0.214573    0.214573    0.214573                     |
 |             3        -0.214573   -0.214573    0.214573                     |
 |             4        -0.214573    0.214573    0.214573                     |
 +----------------------------------------------------------------------------+
  
 Time to write kmesh            0.342 (sec)

 pb.nnkp written.
 Time to write kmesh            0.342 (sec)

 Finished setting up k-point neighbours.

 Exiting wannier_setup in wannier90 20:04:09 

 Resuming Wannier90 at 20:04:11 


                                    ------
                                    SYSTEM
                                    ------

                              Lattice Vectors (Ang)
                    a_1    -2.440184   0.000000   2.440184
                    a_2     0.000000   2.440184   2.440184
                    a_3    -2.440184   2.440184   0.000000

                   Unit Cell Volume:      29.06014  (Ang^3)

                        Reciprocal-Space Vectors (Ang^-1)
                    b_1    -1.287441  -1.287441   1.287441
                    b_2     1.287441   1.287441   1.287441
                    b_3    -1.287441   1.287441  -1.287441
  
 *----------------------------------------------------------------------------*
 |   Site       Fractional Coordinate          Cartesian Coordinate (Ang)     |
 +----------------------------------------------------------------------------+
 | Pb   1   0.00000   0.00000   0.00000   |    0.00000   0.00000   0.00000    |
 *----------------------------------------------------------------------------*
                                -----------
                                PROJECTIONS
                                -----------
  
 +----------------------------------------------------------------------------+
 |     Frac. Coord.   l mr  r        z-axis               x-axis          Z/a |
 +----------------------------------------------------------------------------+
 |  0.00  0.00  0.00 -3  1  1  0.000  0.000  1.000  1.000  0.000  0.000   1.0 |
 |  0.00  0.00  0.00 -3  2  1  0.000  0.000  1.000  1.000  0.000  0.000   1.0 |
 |  0.00  0.00  0.00 -3  3  1  0.000  0.000  1.000  1.000  0.000  0.000   1.0 |
 |  0.00  0.00  0.00 -3  4  1  0.000  0.000  1.000  1.000  0.000  0.000   1.0 |
 +----------------------------------------------------------------------------+
  
                                ------------
                                K-POINT GRID
                                ------------
  
             Grid size =  6 x  6 x  6      Total points =  216
  
 *----------------------------------------------------------------------------*
 | k-point      Fractional Coordinate        Cartesian Coordinate (Ang^-1)    |
 +----------------------------------------------------------------------------+
 |     1    0.00000   0.00000   0.00000   |    0.00000   0.00000   0.00000    |
 |     2    0.00000   0.00000   0.16667   |   -0.21457   0.21457  -0.21457    |
 |     3    0.00000   0.00000   0.33333   |   -0.42915   0.42915  -0.42915    |
 |     4    0.00000   0.00000   0.50000   |   -0.64372   0.64372  -0.64372    |
 |     5    0.00000   0.00000   0.66667   |   -0.85829   0.85829  -0.85829    |
 |     6    0.00000   0.00000   0.83333   |   -1.07287   1.07287  -1.07287    |
 |     7    0.00000   0.16667   0.00000   |    0.21457   0.21457   0.21457    |
 |     8    0.00000   0.16667   0.16667   |    0.00000   0.42915   0.00000    |
 |     9    0.00000   0.16667   0.33333   |   -0.21457   0.64372  -0.21457    |
 |    10    0.00000   0.16667   0.50000   |   -0.42915   0.85829  -0.42915    |
 |    11    0.00000   0.16667   0.66667   |   -0.64372   1.07287  -0.64372    |
 |    12    0.00000   0.16667   0.83333   |   -0.85829   1.28744  -0.85829    |
 |    13    0.00000   0.33333   0.00000   |    0.42915   0.42915   0.42915    |
 |    14    0.00000   0.33333   0.16667   |    0.21457   0.64372   0.21457    |
 |    15    0.00000   0.33333   0.33333   |    0.00000   0.85829   0.00000    |
 |    16    0.00000   0.33333   0.50000   |   -0.21457   1.07287  -0.21457    |
 |    17    0.00000   0.33333   0.66667   |   -0.42915   1.28744  -0.42915    |
 |    18    0.00000   0.33333   0.83333   |   -0.64372   1.50201  -0.64372    |
 |    19    0.00000   0.50000   0.00000   |    0.64372   0.64372   0.64372    |
 |    20    0.00000   0.50000   0.16667   |    0.42915   0.85829   0.42915    |
 |    21    0.00000   0.50000   0.33333   |    0.21457   1.07287   0.21457    |
 |    22    0.00000   0.50000   0.50000   |    0.00000   1.28744   0.00000    |
 |    23    0.00000   0.50000   0.66667   |   -0.21457   1.50201  -0.21457    |
 |    24    0.00000   0.50000   0.83333   |   -0.42915   1.71659  -0.42915    |
 |    25    0.00000   0.66667   0.00000   |    0.85829   0.85829   0.85829    |
 |    26    0.00000   0.66667   0.16667   |    0.64372   1.07287   0.64372    |
 |    27    0.00000   0.66667   0.33333   |    0.42915   1.28744   0.42915    |
 |    28    0.00000   0.66667   0.50000   |    0.21457   1.50201   0.21457    |
 |    29    0.00000   0.66667   0.66667   |    0.00000   1.71659   0.00000    |
 |    30    0.00000   0.66667   0.83333   |   -0.21457   1.93116  -0.21457    |
 |    31    0.00000   0.83333   0.00000   |    1.07287   1.07287   1.07287    |
 |    32    0.00000   0.83333   0.16667   |    0.85829   1.28744   0.85829    |
 |    33    0.00000   0.83333   0.33333   |    0.64372   1.50201   0.64372    |
 |    34    0.00000   0.83333   0.50000   |    0.42915   1.71659   0.42915    |
 |    35    0.00000   0.83333   0.66667   |    0.21457   1.93116   0.21457    |
 |    36    0.00000   0.83333   0.83333   |    0.00000   2.14573   0.00000    |
 |    37    0.16667   0.00000   0.00000   |   -0.21457  -0.21457   0.21457    |
 |    38    0.16667   0.00000   0.16667   |   -0.42915   0.00000   0.00000    |
 |    39    0.16667   0.00000   0.33333   |   -0.64372   0.21457  -0.21457    |
 |    40    0.16667   0.00000   0.50000   |   -0.85829   0.42915  -0.42915    |
 |    41    0.16667   0.00000   0.66667   |   -1.07287   0.64372  -0.64372    |
 |    42    0.16667   0.00000   0.83333   |   -1.28744   0.85829  -0.85829    |
 |    43    0.16667   0.16667   0.00000   |    0.00000   0.00000   0.42915    |
 |    44    0.16667   0.16667   0.16667   |   -0.21457   0.21457   0.21457    |
 |    45    0.16667   0.16667   0.33333   |   -0.42915   0.42915   0.00000    |
 |    46    0.16667   0.16667   0.50000   |   -0.64372   0.64372  -0.21457    |
 |    47    0.16667   0.16667   0.66667   |   -0.85829   0.85829  -0.42915    |
 |    48    0.16667   0.16667   0.83333   |   -1.07287   1.07287  -0.64372    |
 |    49    0.16667   0.33333   0.00000   |    0.21457   0.21457   0.64372    |
 |    50    0.16667   0.33333   0.16667   |   -0.00000   0.42915   0.42915    |
 |    51    0.16667   0.33333   0.33333   |   -0.21457   0.64372   0.21457    |
 |    52    0.16667   0.33333   0.50000   |   -0.42915   0.85829   0.00000    |
 |    53    0.16667   0.33333   0.66667   |   -0.64372   1.07287  -0.21457    |
 |    54    0.16667   0.33333   0.83333   |   -0.85829   1.28744  -0.42915    |
 |    55    0.16667   0.50000   0.00000   |    0.42915   0.42915   0.85829    |
 |    56    0.16667   0.50000   0.16667   |    0.21457   0.64372   0.64372    |
 |    57    0.16667   0.50000   0.33333   |    0.00000   0.85829   0.42915    |
 |    58    0.16667   0.50000   0.50000   |   -0.21457   1.07287   0.21457    |
 |    59    0.16667   0.50000   0.66667   |   -0.42915   1.28744   0.00000    |
 |    60    0.16667   0.50000   0.83333   |   -0.64372   1.50201  -0.21457    |
 |    61    0.16667   0.66667   0.00000   |    0.64372   0.64372   1.07287    |
 |    62    0.16667   0.66667   0.16667   |    0.42915   0.85829   0.85829    |
 |    63    0.16667   0.66667   0.33333   |    0.21457   1.07287   0.64372    |
 |    64    0.16667   0.66667   0.50000   |    0.00000   1.28744   0.42915    |
 |    65    0.16667   0.66667   0.66667   |   -0.21457   1.50201   0.21457    |
 |    66    0.16667   0.66667   0.83333   |   -0.42915   1.71659   0.00000    |
 |    67    0.16667   0.83333   0.00000   |    0.85829   0.85829   1.28744    |
 |    68    0.16667   0.83333   0.16667   |    0.64372   1.07287   1.07287    |
 |    69    0.16667   0.83333   0.33333   |    0.42915   1.28744   0.85829    |
 |    70    0.16667   0.83333   0.50000   |    0.21457   1.50201   0.64372    |
 |    71    0.16667   0.83333   0.66667   |   -0.00000   1.71659   0.42915    |
 |    72    0.16667   0.83333   0.83333   |   -0.21457   1.93116   0.21457    |
 |    73    0.33333   0.00000   0.00000   |   -0.42915  -0.42915   0.42915    |
 |    74    0.33333   0.00000   0.16667   |   -0.64372  -0.21457   0.21457    |
 |    75    0.33333   0.00000   0.33333   |   -0.85829   0.00000   0.00000    |
 |    76    0.33333   0.00000   0.50000   |   -1.07287   0.21457  -0.21457    |
 |    77    0.33333   0.00000   0.66667   |   -1.28744   0.42915  -0.42915    |
 |    78    0.33333   0.00000   0.83333   |   -1.50201   0.64372  -0.64372    |
 |    79    0.33333   0.16667   0.00000   |   -0.21457  -0.21457   0.64372    |
 |    80    0.33333   0.16667   0.16667   |   -0.42915   0.00000   0.42915    |
 |    81    0.33333   0.16667   0.33333   |   -0.64372   0.21457   0.21457    |
 |    82    0.33333   0.16667   0.50000   |   -0.85829   0.42915   0.00000    |
 |    83    0.33333   0.16667   0.66667   |   -1.07287   0.64372  -0.21457    |
 |    84    0.33333   0.16667   0.83333   |   -1.28744   0.85829  -0.42915    |
 |    85    0.33333   0.33333   0.00000   |    0.00000   0.00000   0.85829    |
 |    86    0.33333   0.33333   0.16667   |   -0.21457   0.21457   0.64372    |
 |    87    0.33333   0.33333   0.33333   |   -0.42915   0.42915   0.42915    |
 |    88    0.33333   0.33333   0.50000   |   -0.64372   0.64372   0.21457    |
 |    89    0.33333   0.33333   0.66667   |   -0.85829   0.85829  -0.00000    |
 |    90    0.33333   0.33333   0.83333   |   -1.07287   1.07287  -0.21457    |
 |    91    0.33333   0.50000   0.00000   |    0.21457   0.21457   1.07287    |
 |    92    0.33333   0.50000   0.16667   |    0.00000   0.42915   0.85829    |
 |    93    0.33333   0.50000   0.33333   |   -0.21457   0.64372   0.64372    |
 |    94    0.33333   0.50000   0.50000   |   -0.42915   0.85829   0.42915    |
 |    95    0.33333   0.50000   0.66667   |   -0.64372   1.07287   0.21457    |
 |    96    0.33333   0.50000   0.83333   |   -0.85829   1.28744   0.00000    |
 |    97    0.33333   0.66667   0.00000   |    0.42915   0.42915   1.28744    |
 |    98    0.33333   0.66667   0.16667   |    0.21457   0.64372   1.07287    |
 |    99    0.33333   0.66667   0.33333   |    0.00000   0.85829   0.85829    |
 |   100    0.33333   0.66667   0.50000   |   -0.21457   1.07287   0.64372    |
 |   101    0.33333   0.66667   0.66667   |   -0.42915   1.28744   0.42915    |
 |   102    0.33333   0.66667   0.83333   |   -0.64372   1.50201   0.21457    |
 |   103    0.33333   0.83333   0.00000   |    0.64372   0.64372   1.50201    |
 |   104    0.33333   0.83333   0.16667   |    0.42915   0.85829   1.28744    |
 |   105    0.33333   0.83333   0.33333   |    0.21457   1.07287   1.07287    |
 |   106    0.33333   0.83333   0.50000   |    0.00000   1.28744   0.85829    |
 |   107    0.33333   0.83333   0.66667   |   -0.21457   1.50201   0.64372    |
 |   108    0.33333   0.83333   0.83333   |   -0.42915   1.71659   0.42915    |
 |   109    0.50000   0.00000   0.00000   |   -0.64372  -0.64372   0.64372    |
 |   110    0.50000   0.00000   0.16667   |   -0.85829  -0.42915   0.42915    |
 |   111    0.50000   0.00000   0.33333   |   -1.07287  -0.21457   0.21457    |
 |   112    0.50000   0.00000   0.50000   |   -1.28744   0.00000   0.00000    |
 |   113    0.50000   0.00000   0.66667   |   -1.50201   0.21457  -0.21457    |
 |   114    0.50000   0.00000   0.83333   |   -1.71659   0.42915  -0.42915    |
 |   115    0.50000   0.16667   0.00000   |   -0.42915  -0.42915   0.85829    |
 |   116    0.50000   0.16667   0.16667   |   -0.64372  -0.21457   0.64372    |
 |   117    0.50000   0.16667   0.33333   |   -0.85829   0.00000   0.42915    |
 |   118    0.50000   0.16667   0.50000   |   -1.07287   0.21457   0.21457    |
 |   119    0.50000   0.16667   0.66667   |   -1.28744   0.42915   0.00000    |
 |   120    0.50000   0.16667   0.83333   |   -1.50201   0.64372  -0.21457    |
 |   121    0.50000   0.33333   0.00000   |   -0.21457  -0.21457   1.07287    |
 |   122    0.50000   0.33333   0.16667   |   -0.42915   0.00000   0.85829    |
 |   123    0.50000   0.33333   0.33333   |   -0.64372   0.21457   0.64372    |
 |   124    0.50000   0.33333   0.50000   |   -0.85829   0.42915   0.42915    |
 |   125    0.50000   0.33333   0.66667   |   -1.07287   0.64372   0.21457    |
 |   126    0.50000   0.33333   0.83333   |   -1.28744   0.85829   0.00000    |
 |   127    0.50000   0.50000   0.00000   |    0.00000   0.00000   1.28744    |
 |   128    0.50000   0.50000   0.16667   |   -0.21457   0.21457   1.07287    |
 |   129    0.50000   0.50000   0.33333   |   -0.42915   0.42915   0.85829    |
 |   130    0.50000   0.50000   0.50000   |   -0.64372   0.64372   0.64372    |
 |   131    0.50000   0.50000   0.66667   |   -0.85829   0.85829   0.42915    |
 |   132    0.50000   0.50000   0.83333   |   -1.07287   1.07287   0.21457    |
 |   133    0.50000   0.66667   0.00000   |    0.21457   0.21457   1.50201    |
 |   134    0.50000   0.66667   0.16667   |    0.00000   0.42915   1.28744    |
 |   135    0.50000   0.66667   0.33333   |   -0.21457   0.64372   1.07287    |
 |   136    0.50000   0.66667   0.50000   |   -0.42915   0.85829   0.85829    |
 |   137    0.50000   0.66667   0.66667   |   -0.64372   1.07287   0.64372    |
 |   138    0.50000   0.66667   0.83333   |   -0.85829   1.28744   0.42915    |
 |   139    0.50000   0.83333   0.00000   |    0.42915   0.42915   1.71659    |
 |   140    0.50000   0.83333   0.16667   |    0.21457   0.64372   1.50201    |
 |   141    0.50000   0.83333   0.33333   |    0.00000   0.85829   1.28744    |
 |   142    0.50000   0.83333   0.50000   |   -0.21457   1.07287   1.07287    |
 |   143    0.50000   0.83333   0.66667   |   -0.42915   1.28744   0.85829    |
 |   144    0.50000   0.83333   0.83333   |   -0.64372   1.50201   0.64372    |
 |   145    0.66667   0.00000   0.00000   |   -0.85829  -0.85829   0.85829    |
 |   146    0.66667   0.00000   0.16667   |   -1.07287  -0.64372   0.64372    |
 |   147    0.66667   0.00000   0.33333   |   -1.28744  -0.42915   0.42915    |
 |   148    0.66667   0.00000   0.50000   |   -1.50201  -0.21457   0.21457    |
 |   149    0.66667   0.00000   0.66667   |   -1.71659   0.00000   0.00000    |
 |   150    0.66667   0.00000   0.83333   |   -1.93116   0.21457  -0.21457    |
 |   151    0.66667   0.16667   0.00000   |   -0.64372  -0.64372   1.07287    |
 |   152    0.66667   0.16667   0.16667   |   -0.85829  -0.42915   0.85829    |
 |   153    0.66667   0.16667   0.33333   |   -1.07287  -0.21457   0.64372    |
 |   154    0.66667   0.16667   0.50000   |   -1.28744   0.00000   0.42915    |
 |   155    0.66667   0.16667   0.66667   |   -1.50201   0.21457   0.21457    |
 |   156    0.66667   0.16667   0.83333   |   -1.71659   0.42915   0.00000    |
 |   157    0.66667   0.33333   0.00000   |   -0.42915  -0.42915   1.28744    |
 |   158    0.66667   0.33333   0.16667   |   -0.64372  -0.21457   1.07287    |
 |   159    0.66667   0.33333   0.33333   |   -0.85829  -0.00000   0.85829    |
 |   160    0.66667   0.33333   0.50000   |   -1.07287   0.21457   0.64372    |
 |   161    0.66667   0.33333   0.66667   |   -1.28744   0.42915   0.42915    |
 |   162    0.66667   0.33333   0.83333   |   -1.50201   0.64372   0.21457    |
 |   163    0.66667   0.50000   0.00000   |   -0.21457  -0.21457   1.50201    |
 |   164    0.66667   0.50000   0.16667   |   -0.42915   0.00000   1.28744    |
 |   165    0.66667   0.50000   0.33333   |   -0.64372   0.21457   1.07287    |
 |   166    0.66667   0.50000   0.50000   |   -0.85829   0.42915   0.85829    |
 |   167    0.66667   0.50000   0.66667   |   -1.07287   0.64372   0.64372    |
 |   168    0.66667   0.50000   0.83333   |   -1.28744   0.85829   0.42915    |
 |   169    0.66667   0.66667   0.00000   |    0.00000   0.00000   1.71659    |
 |   170    0.66667   0.66667   0.16667   |   -0.21457   0.21457   1.50201    |
 |   171    0.66667   0.66667   0.33333   |   -0.42915   0.42915   1.28744    |
 |   172    0.66667   0.66667   0.50000   |   -0.64372   0.64372   1.07287    |
 |   173    0.66667   0.66667   0.66667   |   -0.85829   0.85829   0.85829    |
 |   174    0.66667   0.66667   0.83333   |   -1.07287   1.07287   0.64372    |
 |   175    0.66667   0.83333   0.00000   |    0.21457   0.21457   1.93116    |
 |   176    0.66667   0.83333   0.16667   |   -0.00000   0.42915   1.71659    |
 |   177    0.66667   0.83333   0.33333   |   -0.21457   0.64372   1.50201    |
 |   178    0.66667   0.83333   0.50000   |   -0.42915   0.85829   1.28744    |
 |   179    0.66667   0.83333   0.66667   |   -0.64372   1.07287   1.07287    |
 |   180    0.66667   0.83333   0.83333   |   -0.85829   1.28744   0.85829    |
 |   181    0.83333   0.00000   0.00000   |   -1.07287  -1.07287   1.07287    |
 |   182    0.83333   0.00000   0.16667   |   -1.28744  -0.85829   0.85829    |
 |   183    0.83333   0.00000   0.33333   |   -1.50201  -0.64372   0.64372    |
 |   184    0.83333   0.00000   0.50000   |   -1.71659  -0.42915   0.42915    |
 |   185    0.83333   0.00000   0.66667   |   -1.93116  -0.21457   0.21457    |
 |   186    0.83333   0.00000   0.83333   |   -2.14573   0.00000   0.00000    |
 |   187    0.83333   0.16667   0.00000   |   -0.85829  -0.85829   1.28744    |
 |   188    0.83333   0.16667   0.16667   |   -1.07287  -0.64372   1.07287    |
 |   189    0.83333   0.16667   0.33333   |   -1.28744  -0.42915   0.85829    |
 |   190    0.83333   0.16667   0.50000   |   -1.50201  -0.21457   0.64372    |
 |   191    0.83333   0.16667   0.66667   |   -1.71659   0.00000   0.42915    |
 |   192    0.83333   0.16667   0.83333   |   -1.93116   0.21457   0.21457    |
 |   193    0.83333   0.33333   0.00000   |   -0.64372  -0.64372   1.50201    |
 |   194    0.83333   0.33333   0.16667   |   -0.85829  -0.42915   1.28744    |
 |   195    0.83333   0.33333   0.33333   |   -1.07287  -0.21457   1.07287    |
 |   196    0.83333   0.33333   0.50000   |   -1.28744   0.00000   0.85829    |
 |   197    0.83333   0.33333   0.66667   |   -1.50201   0.21457   0.64372    |
 |   198    0.83333   0.33333   0.83333   |   -1.71659   0.42915   0.42915    |
 |   199    0.83333   0.50000   0.00000   |   -0.42915  -0.42915   1.71659    |
 |   200    0.83333   0.50000   0.16667   |   -0.64372  -0.21457   1.50201    |
 |   201    0.83333   0.50000   0.33333   |   -0.85829  -0.00000   1.28744    |
 |   202    0.83333   0.50000   0.50000   |   -1.07287   0.21457   1.07287    |
 |   203    0.83333   0.50000   0.66667   |   -1.28744   0.42915   0.85829    |
 |   204    0.83333   0.50000   0.83333   |   -1.50201   0.64372   0.64372    |
 |   205    0.83333   0.66667   0.00000   |   -0.21457  -0.21457   1.93116    |
 |   206    0.83333   0.66667   0.16667   |   -0.42915   0.00000   1.71659    |
 |   207    0.83333   0.66667   0.33333   |   -0.64372   0.21457   1.50201    |
 |   208    0.83333   0.66667   0.50000   |   -0.85829   0.42915   1.28744    |
 |   209    0.83333   0.66667   0.66667   |   -1.07287   0.64372   1.07287    |
 |   210    0.83333   0.66667   0.83333   |   -1.28744   0.85829   0.85829    |
 |   211    0.83333   0.83333   0.00000   |    0.00000   0.00000   2.14573    |
 |   212    0.83333   0.83333   0.16667   |   -0.21457   0.21457   1.93116    |
 |   213    0.83333   0.83333   0.33333   |   -0.42915   0.42915   1.71659    |
 |   214    0.83333   0.83333   0.50000   |   -0.64372   0.64372   1.50201    |
 |   215    0.83333   0.83333   0.66667   |   -0.85829   0.85829   1.28744    |
 |   216    0.83333   0.83333   0.83333   |   -1.07287   1.07287   1.07287    |
 *----------------------------------------------------------------------------*
  
  
 *---------------------------------- MAIN ------------------------------------*
 |  Number of Wannier Functions               :                 4             |
 |  Number of Objective Wannier Functions     :                 4             |
 |  Number of input Bloch states              :                 5             |
 |  Output verbosity (1=low, 5=high)          :                 2             |
 |  Timing Level (1=low, 5=high)              :                 1             |
 |  Optimisation (0=memory, 3=speed)          :                 3             |
 |  Length Unit                               :               Ang             |
 |  Post-processing setup (write *.nnkp)      :                 T             |
 |  Using Gamma-only branch of algorithms     :                 F             |
 *----------------------------------------------------------------------------*
 *------------------------------- WANNIERISE ---------------------------------*
 |  Total number of iterations                :               300             |
 |  Number of CG steps before reset           :                 5             |
 |  Trial step length for line search         :             2.000             |
 |  Convergence tolerence                     :         0.100E-09             |
 |  Convergence window                        :                -1             |
 |  Iterations between writing output         :                 1             |
 |  Iterations between backing up to disk     :               100             |
 |  Write r^2_nm to file                      :                 F             |
 |  Write xyz WF centres to file              :                 F             |
 |  Write on-site energies <0n|H|0n> to file  :                 F             |
 |  Use guiding centre to control phases      :                 F             |
 |  Use phases for initial projections        :                 F             |
 *----------------------------------------------------------------------------*
 *------------------------------- DISENTANGLE --------------------------------*
 |  Using band disentanglement                :                 T             |
 |  Total number of iterations                :               200             |
 |  Mixing ratio                              :             0.500             |
 |  Convergence tolerence                     :         1.000E-10             |
 |  Convergence window                        :                 3             |
 *----------------------------------------------------------------------------*
 *-------------------------------- PLOTTING ----------------------------------*
 |  Plotting Hamiltonian in WF basis          :                 T             |
 *----------------------------------------------------------------------------*
 Time to read parameters        0.001 (sec)

 *---------------------------------- K-MESH ----------------------------------*
 +----------------------------------------------------------------------------+
 |                    Distance to Nearest-Neighbour Shells                    |
 |                    ------------------------------------                    |
 |          Shell             Distance (Ang^-1)          Multiplicity         |
 |          -----             -----------------          ------------         |
 |             1                   0.371652                      8            |
 |             2                   0.429147                      6            |
 |             3                   0.606906                     12            |
 |             4                   0.711660                     24            |
 |             5                   0.743304                      8            |
 |             6                   0.858294                      6            |
 |             7                   0.935304                     24            |
 |             8                   0.959602                     24            |
 |             9                   1.051191                     24            |
 |            10                   1.114957                     32            |
 |            11                   1.213811                     12            |
 |            12                   1.269434                     48            |
 |            13                   1.287441                     30            |
 |            14                   1.357082                     24            |
 |            15                   1.407052                     24            |
 |            16                   1.423320                     24            |
 |            17                   1.486609                      8            |
 |            18                   1.532361                     48            |
 |            19                   1.547311                     24            |
 |            20                   1.605721                     48            |
 |            21                   1.648170                     72            |
 |            22                   1.716588                      6            |
 |            23                   1.756360                     24            |
 |            24                   1.769418                     48            |
 |            25                   1.820716                     36            |
 |            26                   1.858261                     56            |
 |            27                   1.870608                     24            |
 |            28                   1.919204                     24            |
 |            29                   1.954858                     72            |
 |            30                   1.966599                     48            |
 |            31                   2.012878                     24            |
 |            32                   2.046901                     48            |
 |            33                   2.102382                     24            |
 |            34                   2.134979                     72            |
 |            35                   2.145735                     30            |
 |            36                   2.188229                     72            |
 +----------------------------------------------------------------------------+
 | The b-vectors are chosen automatically                                     |
 | Shell:  1 w_b    2.7149251      (Ang^2)                                    |
 | The following shells are used:   1                                         |
 +----------------------------------------------------------------------------+
 |                        Shell   # Nearest-Neighbours                        |
 |                        -----   --------------------                        |
 |                          1               8                                 |
 +----------------------------------------------------------------------------+
 | Completeness relation is fully satisfied [Eq. (B1), PRB 56, 12847 (1997)]  |
 +----------------------------------------------------------------------------+
 |                  b_k Vectors (Ang^-1) and Weights (Ang^2)                  |
 |                  ----------------------------------------                  |
 |            No.         b_k(x)      b_k(y)      b_k(z)        w_b           |
 |            ---        --------------------------------     --------        |
 |             1        -0.214573    0.214573   -0.214573     2.714925        |
 |             2         0.214573    0.214573    0.214573     2.714925        |
 |             3        -0.214573   -0.214573    0.214573     2.714925        |
 |             4        -0.214573    0.214573    0.214573     2.714925        |
 |             5         0.214573   -0.214573    0.214573     2.714925        |
 |             6        -0.214573   -0.214573   -0.214573     2.714925        |
 |             7         0.214573    0.214573   -0.214573     2.714925        |
 |             8         0.214573   -0.214573   -0.214573     2.714925        |
 +----------------------------------------------------------------------------+
 |                           b_k Directions (Ang^-1)                          |
 |                           -----------------------                          |
 |            No.           x           y           z                         |
 |            ---        --------------------------------                     |
 |             1        -0.214573    0.214573   -0.214573                     |
 |             2         0.214573    0.214573    0.214573                     |
 |             3        -0.214573   -0.214573    0.214573                     |
 |             4        -0.214573    0.214573    0.214573                     |
 +----------------------------------------------------------------------------+
  
 Time to get kmesh              0.339 (sec)

 *------------------------------- DISENTANGLE --------------------------------*
 +----------------------------------------------------------------------------+
 |                              Energy  Windows                               |
 |                              ---------------                               |
 |                   Outer:   -0.40851  to   21.00000  (eV)                   |
 |                   Inner:   -0.40851  to   13.50000  (eV)                   |
 +----------------------------------------------------------------------------+
 |                        K-points with Frozen States                         |
 |                        ---------------------------                         |
 |     1     2     3     4     5     6     7     8     9    10    11    12    |
 |    13    14    15    16    17    18    19    20    21    22    23    24    |
 |    25    26    27    28    29    30    31    32    33    34    35    36    |
 |    37    38    39    40    41    42    43    44    45    46    47    48    |
 |    49    50    51    52    53    54    55    56    57    58    59    60    |
 |    61    62    63    64    65    66    67    68    69    70    71    72    |
 |    73    74    75    76    77    78    79    80    81    82    83    84    |
 |    85    86    87    88    89    90    91    92    93    94    95    96    |
 |    97    98    99   100   101   102   103   104   105   106   107   108    |
 |   109   110   111   112   113   114   115   116   117   118   119   120    |
 |   121   122   123   124   125   126   127   128   129   130   131   132    |
 |   133   134   135   136   137   138   139   140   141   142   143   144    |
 |   145   146   147   148   149   150   151   152   153   154   155   156    |
 |   157   158   159   160   161   162   163   164   165   166   167   168    |
 |   169   170   171   172   173   174   175   176   177   178   179   180    |
 |   181   182   183   184   185   186   187   188   189   190   191   192    |
 |   193   194   195   196   197   198   199   200   201   202   203   204    |
 |   205   206   207   208   209   210   211   212   213   214   215   216    |
 +----------------------------------------------------------------------------+
   Number of target bands to extract:    4
 +----------------------------------------------------------------------------+
 |                                  Windows                                   |
 |                                  -------                                   |
 |               K-point      Ndimwin     Ndimfroz    Nfirstwin               |
 |               ----------------------------------------------               |
 |                   1            4            1           1                  |
 |                   2            4            1           1                  |
 |                   3            4            2           1                  |
 |                   4            4            2           1                  |
 |                   5            4            2           1                  |
 |                   6            4            1           1                  |
 |                   7            4            1           1                  |
 |                   8            5            1           1                  |
 |                   9            5            2           1                  |
 |                  10            5            2           1                  |
 |                  11            5            2           1                  |
 |                  12            4            2           1                  |
 |                  13            4            2           1                  |
 |                  14            5            2           1                  |
 |                  15            5            2           1                  |
 |                  16            5            3           1                  |
 |                  17            5            3           1                  |
 |                  18            5            2           1                  |
 |                  19            4            2           1                  |
 |                  20            5            2           1                  |
 |                  21            5            3           1                  |
 |                  22            5            2           1                  |
 |                  23            5            3           1                  |
 |                  24            5            2           1                  |
 |                  25            4            2           1                  |
 |                  26            5            2           1                  |
 |                  27            5            3           1                  |
 |                  28            5            3           1                  |
 |                  29            5            2           1                  |
 |                  30            5            2           1                  |
 |                  31            4            1           1                  |
 |                  32            4            2           1                  |
 |                  33            5            2           1                  |
 |                  34            5            2           1                  |
 |                  35            5            2           1                  |
 |                  36            5            1           1                  |
 |                  37            4            1           1                  |
 |                  38            5            1           1                  |
 |                  39            5            2           1                  |
 |                  40            5            2           1                  |
 |                  41            5            2           1                  |
 |                  42            4            2           1                  |
 |                  43            5            1           1                  |
 |                  44            4            1           1                  |
 |                  45            4            2           1                  |
 |                  46            5            2           1                  |
 |                  47            5            2           1                  |
 |                  48            5            2           1                  |
 |                  49            5            2           1                  |
 |                  50            4            2           1                  |
 |                  51            5            2           1                  |
 |                  52            4            3           1                  |
 |                  53            4            3           1                  |
 |                  54            4            3           1                  |
 |                  55            5            2           1                  |
 |                  56            5            2           1                  |
 |                  57            4            3           1                  |
 |                  58            5            3           1                  |
 |                  59            5            4           1                  |
 |                  60            4            3           1                  |
 |                  61            5            2           1                  |
 |                  62            5            2           1                  |
 |                  63            4            3           1                  |
 |                  64            5            4           1                  |
 |                  65            5            3           1                  |
 |                  66            4            3           1                  |
 |                  67            4            2           1                  |
 |                  68            5            2           1                  |
 |                  69            4            3           1                  |
 |                  70            4            3           1                  |
 |                  71            4            3           1                  |
 |                  72            5            2           1                  |
 |                  73            4            2           1                  |
 |                  74            5            2           1                  |
 |                  75            5            2           1                  |
 |                  76            5            3           1                  |
 |                  77            5            3           1                  |
 |                  78            5            2           1                  |
 |                  79            5            2           1                  |
 |                  80            4            2           1                  |
 |                  81            5            2           1                  |
 |                  82            4            3           1                  |
 |                  83            4            3           1                  |
 |                  84            4            3           1                  |
 |                  85            5            2           1                  |
 |                  86            5            2           1                  |
 |                  87            4            2           1                  |
 |                  88            5            2           1                  |
 |                  89            5            3           1                  |
 |                  90            5            3           1                  |
 |                  91            5            3           1                  |
 |                  92            4            3           1                  |
 |                  93            5            2           1                  |
 |                  94            5            2           1                  |
 |                  95            4            3           1                  |
 |                  96            5            4           1                  |
 |                  97            5            3           1                  |
 |                  98            4            3           1                  |
 |                  99            5            3           1                  |
 |                 100            4            3           1                  |
 |                 101            5            3           1                  |
 |                 102            4            3           1                  |
 |                 103            5            2           1                  |
 |                 104            4            3           1                  |
 |                 105            5            3           1                  |
 |                 106            5            4           1                  |
 |                 107            4            3           1                  |
 |                 108            5            2           1                  |
 |                 109            4            2           1                  |
 |                 110            5            2           1                  |
 |                 111            5            3           1                  |
 |                 112            5            2           1                  |
 |                 113            5            3           1                  |
 |                 114            5            2           1                  |
 |                 115            5            2           1                  |
 |                 116            5            2           1                  |
 |                 117            4            3           1                  |
 |                 118            5            3           1                  |
 |                 119            5            4           1                  |
 |                 120            4            3           1                  |
 |                 121            5            3           1                  |
 |                 122            4            3           1                  |
 |                 123            5            2           1                  |
 |                 124            5            2           1                  |
 |                 125            4            3           1                  |
 |                 126            5            4           1                  |
 |                 127            5            2           1                  |
 |                 128            5            3           1                  |
 |                 129            5            2           1                  |
 |                 130            4            2           1                  |
 |                 131            5            2           1                  |
 |                 132            5            3           1                  |
 |                 133            5            3           1                  |
 |                 134            5            4           1                  |
 |                 135            4            3           1                  |
 |                 136            5            2           1                  |
 |                 137            5            2           1                  |
 |                 138            4            3           1                  |
 |                 139            5            2           1                  |
 |                 140            4            3           1                  |
 |                 141            5            4           1                  |
 |                 142            5            3           1                  |
 |                 143            4            3           1                  |
 |                 144            5            2           1                  |
 |                 145            4            2           1                  |
 |                 146            5            2           1                  |
 |                 147            5            3           1                  |
 |                 148            5            3           1                  |
 |                 149            5            2           1                  |
 |                 150            5            2           1                  |
 |                 151            5            2           1                  |
 |                 152            5            2           1                  |
 |                 153            4            3           1                  |
 |                 154            5            4           1                  |
 |                 155            5            3           1                  |
 |                 156            4            3           1                  |
 |                 157            5            3           1                  |
 |                 158            4            3           1                  |
 |                 159            5            3           1                  |
 |                 160            4            3           1                  |
 |                 161            5            3           1                  |
 |                 162            4            3           1                  |
 |                 163            5            3           1                  |
 |                 164            5            4           1                  |
 |                 165            4            3           1                  |
 |                 166            5            2           1                  |
 |                 167            5            2           1                  |
 |                 168            4            3           1                  |
 |                 169            5            2           1                  |
 |                 170            5            3           1                  |
 |                 171            5            3           1                  |
 |                 172            5            2           1                  |
 |                 173            4            2           1                  |
 |                 174            5            2           1                  |
 |                 175            5            2           1                  |
 |                 176            4            3           1                  |
 |                 177            4            3           1                  |
 |                 178            4            3           1                  |
 |                 179            5            2           1                  |
 |                 180            4            2           1                  |
 |                 181            4            1           1                  |
 |                 182            4            2           1                  |
 |                 183            5            2           1                  |
[...]
 Delta: O_D=  0.1210560E-10 O_OD= -0.1211653E-10 O_TOT= -0.1065814E-13 <-- DLTA
 ------------------------------------------------------------------------------
 Cycle:    277
  WF centre and spread    1  (  0.379629,  0.379629,  0.379629 )     2.22273649
  WF centre and spread    2  (  0.379629, -0.379629, -0.379629 )     2.22273651
  WF centre and spread    3  ( -0.379629,  0.379629, -0.379629 )     2.22273649
  WF centre and spread    4  ( -0.379629, -0.379629,  0.379629 )     2.22273649
  Sum of centres and spreads ( -0.000000, -0.000000, -0.000000 )     8.89094597

    277     0.195E-13     0.0000001830        8.8909459004       0.93  <-- CONV
        O_D=      0.0024879 O_OD=      1.7357397 O_TOT=      8.8909459 <-- SPRD
 Delta: O_D=  0.1444385E-11 O_OD= -0.1425304E-11 O_TOT=  0.1953993E-13 <-- DLTA
 ------------------------------------------------------------------------------
 Cycle:    278
  WF centre and spread    1  (  0.379629,  0.379629,  0.379629 )     2.22273649
  WF centre and spread    2  (  0.379629, -0.379629, -0.379629 )     2.22273651
  WF centre and spread    3  ( -0.379629,  0.379629, -0.379629 )     2.22273649
  WF centre and spread    4  ( -0.379629, -0.379629,  0.379629 )     2.22273649
  Sum of centres and spreads ( -0.000000, -0.000000, -0.000000 )     8.89094597

    278     0.000E+00     0.0000001829        8.8909459004       0.93  <-- CONV
        O_D=      0.0024879 O_OD=      1.7357397 O_TOT=      8.8909459 <-- SPRD
 Delta: O_D=  0.5063472E-11 O_OD= -0.5062839E-11 O_TOT=  0.0000000E+00 <-- DLTA
 ------------------------------------------------------------------------------
 Cycle:    279
  WF centre and spread    1  (  0.379629,  0.379629,  0.379629 )     2.22273649
  WF centre and spread    2  (  0.379629, -0.379629, -0.379629 )     2.22273651
  WF centre and spread    3  ( -0.379629,  0.379629, -0.379629 )     2.22273649
  WF centre and spread    4  ( -0.379629, -0.379629,  0.379629 )     2.22273649
  Sum of centres and spreads ( -0.000000, -0.000000, -0.000000 )     8.89094597

    279     0.178E-14     0.0000001824        8.8909459004       0.94  <-- CONV
        O_D=      0.0024879 O_OD=      1.7357397 O_TOT=      8.8909459 <-- SPRD
 Delta: O_D=  0.6240494E-13 O_OD= -0.6039613E-13 O_TOT=  0.1776357E-14 <-- DLTA
 ------------------------------------------------------------------------------
 Cycle:    280
  WF centre and spread    1  (  0.379629,  0.379629,  0.379629 )     2.22273649
  WF centre and spread    2  (  0.379629, -0.379629, -0.379629 )     2.22273651
  WF centre and spread    3  ( -0.379629,  0.379629, -0.379629 )     2.22273649
  WF centre and spread    4  ( -0.379629, -0.379629,  0.379629 )     2.22273649
  Sum of centres and spreads ( -0.000000, -0.000000, -0.000000 )     8.89094597

    280    -0.355E-14     0.0000001824        8.8909459004       0.94  <-- CONV
        O_D=      0.0024879 O_OD=      1.7357397 O_TOT=      8.8909459 <-- SPRD
 Delta: O_D=  0.6036854E-11 O_OD= -0.6041834E-11 O_TOT= -0.3552714E-14 <-- DLTA
 ------------------------------------------------------------------------------
 Cycle:    281
  WF centre and spread    1  (  0.379629,  0.379629,  0.379629 )     2.22273649
  WF centre and spread    2  (  0.379629, -0.379629, -0.379629 )     2.22273651
  WF centre and spread    3  ( -0.379629,  0.379629, -0.379629 )     2.22273649
  WF centre and spread    4  ( -0.379629, -0.379629,  0.379629 )     2.22273649
  Sum of centres and spreads ( -0.000000, -0.000000, -0.000000 )     8.89094597

    281     0.142E-13     0.0000001818        8.8909459004       0.95  <-- CONV
        O_D=      0.0024879 O_OD=      1.7357397 O_TOT=      8.8909459 <-- SPRD
 Delta: O_D=  0.7930366E-12 O_OD= -0.7780443E-12 O_TOT=  0.1421085E-13 <-- DLTA
 ------------------------------------------------------------------------------
 Cycle:    282
  WF centre and spread    1  (  0.379629,  0.379629,  0.379629 )     2.22273649
  WF centre and spread    2  (  0.379629, -0.379629, -0.379629 )     2.22273651
  WF centre and spread    3  ( -0.379629,  0.379629, -0.379629 )     2.22273649
  WF centre and spread    4  ( -0.379629, -0.379629,  0.379629 )     2.22273649
  Sum of centres and spreads ( -0.000000, -0.000000, -0.000000 )     8.89094597

    282    -0.533E-14     0.0000001817        8.8909459004       0.95  <-- CONV
        O_D=      0.0024879 O_OD=      1.7357397 O_TOT=      8.8909459 <-- SPRD
 Delta: O_D=  0.1200883E-10 O_OD= -0.1201306E-10 O_TOT= -0.5329071E-14 <-- DLTA
 ------------------------------------------------------------------------------
 Cycle:    283
  WF centre and spread    1  (  0.379629,  0.379629,  0.379629 )     2.22273649
  WF centre and spread    2  (  0.379629, -0.379629, -0.379629 )     2.22273651
  WF centre and spread    3  ( -0.379629,  0.379629, -0.379629 )     2.22273649
  WF centre and spread    4  ( -0.379629, -0.379629,  0.379629 )     2.22273649
  Sum of centres and spreads ( -0.000000, -0.000000, -0.000000 )     8.89094597

    283    -0.711E-14     0.0000001805        8.8909459004       0.95  <-- CONV
        O_D=      0.0024879 O_OD=      1.7357397 O_TOT=      8.8909459 <-- SPRD
 Delta: O_D=  0.1484546E-10 O_OD= -0.1485345E-10 O_TOT= -0.7105427E-14 <-- DLTA
 ------------------------------------------------------------------------------
 Cycle:    284
  WF centre and spread    1  (  0.379629,  0.379629,  0.379629 )     2.22273649
  WF centre and spread    2  (  0.379629, -0.379629, -0.379629 )     2.22273651
  WF centre and spread    3  ( -0.379629,  0.379629, -0.379629 )     2.22273649
  WF centre and spread    4  ( -0.379629, -0.379629,  0.379629 )     2.22273649
  Sum of centres and spreads ( -0.000000, -0.000000, -0.000000 )     8.89094597

    284    -0.142E-13     0.0000001791        8.8909459004       0.95  <-- CONV
        O_D=      0.0024879 O_OD=      1.7357397 O_TOT=      8.8909459 <-- SPRD
 Delta: O_D=  0.1757789E-10 O_OD= -0.1759193E-10 O_TOT= -0.1421085E-13 <-- DLTA
 ------------------------------------------------------------------------------
 Cycle:    285
  WF centre and spread    1  (  0.379629,  0.379629,  0.379629 )     2.22273649
  WF centre and spread    2  (  0.379629, -0.379629, -0.379629 )     2.22273651
  WF centre and spread    3  ( -0.379629,  0.379629, -0.379629 )     2.22273649
  WF centre and spread    4  ( -0.379629, -0.379629,  0.379629 )     2.22273649
  Sum of centres and spreads ( -0.000000, -0.000000, -0.000000 )     8.89094597

    285    -0.533E-14     0.0000001774        8.8909459004       0.96  <-- CONV
        O_D=      0.0024879 O_OD=      1.7357397 O_TOT=      8.8909459 <-- SPRD
 Delta: O_D=  0.2946420E-11 O_OD= -0.2952527E-11 O_TOT= -0.5329071E-14 <-- DLTA
 ------------------------------------------------------------------------------
 Cycle:    286
  WF centre and spread    1  (  0.379629,  0.379629,  0.379629 )     2.22273649
  WF centre and spread    2  (  0.379629, -0.379629, -0.379629 )     2.22273651
  WF centre and spread    3  ( -0.379629,  0.379629, -0.379629 )     2.22273649
  WF centre and spread    4  ( -0.379629, -0.379629,  0.379629 )     2.22273649
  Sum of centres and spreads ( -0.000000, -0.000000, -0.000000 )     8.89094597

    286     0.888E-14     0.0000001771        8.8909459004       0.96  <-- CONV
        O_D=      0.0024879 O_OD=      1.7357397 O_TOT=      8.8909459 <-- SPRD
 Delta: O_D=  0.4107361E-12 O_OD= -0.4023448E-12 O_TOT=  0.8881784E-14 <-- DLTA
 ------------------------------------------------------------------------------
 Cycle:    287
  WF centre and spread    1  (  0.379629,  0.379629,  0.379629 )     2.22273649
  WF centre and spread    2  (  0.379629, -0.379629, -0.379629 )     2.22273651
  WF centre and spread    3  ( -0.379629,  0.379629, -0.379629 )     2.22273649
  WF centre and spread    4  ( -0.379629, -0.379629,  0.379629 )     2.22273649
  Sum of centres and spreads ( -0.000000, -0.000000, -0.000000 )     8.89094597

    287    -0.213E-13     0.0000001770        8.8909459004       0.96  <-- CONV
        O_D=      0.0024879 O_OD=      1.7357397 O_TOT=      8.8909459 <-- SPRD
 Delta: O_D=  0.8818137E-11 O_OD= -0.8838041E-11 O_TOT= -0.2131628E-13 <-- DLTA
 ------------------------------------------------------------------------------
 Cycle:    288
  WF centre and spread    1  (  0.379629,  0.379629,  0.379629 )     2.22273649
  WF centre and spread    2  (  0.379629, -0.379629, -0.379629 )     2.22273651
  WF centre and spread    3  ( -0.379629,  0.379629, -0.379629 )     2.22273649
  WF centre and spread    4  ( -0.379629, -0.379629,  0.379629 )     2.22273649
  Sum of centres and spreads ( -0.000000, -0.000000, -0.000000 )     8.89094597

    288     0.231E-13     0.0000001762        8.8909459004       0.97  <-- CONV
        O_D=      0.0024879 O_OD=      1.7357397 O_TOT=      8.8909459 <-- SPRD
 Delta: O_D=  0.1086054E-11 O_OD= -0.1063372E-11 O_TOT=  0.2309264E-13 <-- DLTA
 ------------------------------------------------------------------------------
 Cycle:    289
  WF centre and spread    1  (  0.379629,  0.379629,  0.379629 )     2.22273649
  WF centre and spread    2  (  0.379629, -0.379629, -0.379629 )     2.22273651
  WF centre and spread    3  ( -0.379629,  0.379629, -0.379629 )     2.22273649
  WF centre and spread    4  ( -0.379629, -0.379629,  0.379629 )     2.22273649
  Sum of centres and spreads ( -0.000000, -0.000000, -0.000000 )     8.89094597

    289    -0.178E-14     0.0000001761        8.8909459004       0.97  <-- CONV
        O_D=      0.0024879 O_OD=      1.7357397 O_TOT=      8.8909459 <-- SPRD
 Delta: O_D=  0.1457541E-10 O_OD= -0.1457656E-10 O_TOT= -0.1776357E-14 <-- DLTA
 ------------------------------------------------------------------------------
 Cycle:    290
  WF centre and spread    1  (  0.379629,  0.379629,  0.379629 )     2.22273649
  WF centre and spread    2  (  0.379629, -0.379629, -0.379629 )     2.22273651
  WF centre and spread    3  ( -0.379629,  0.379629, -0.379629 )     2.22273649
  WF centre and spread    4  ( -0.379629, -0.379629,  0.379629 )     2.22273649
  Sum of centres and spreads ( -0.000000, -0.000000, -0.000000 )     8.89094597

    290    -0.231E-13     0.0000001746        8.8909459004       0.97  <-- CONV
        O_D=      0.0024879 O_OD=      1.7357397 O_TOT=      8.8909459 <-- SPRD
 Delta: O_D=  0.1724766E-10 O_OD= -0.1727085E-10 O_TOT= -0.2309264E-13 <-- DLTA
 ------------------------------------------------------------------------------
 Cycle:    291
  WF centre and spread    1  (  0.379629,  0.379629,  0.379629 )     2.22273649
  WF centre and spread    2  (  0.379629, -0.379629, -0.379629 )     2.22273651
  WF centre and spread    3  ( -0.379629,  0.379629, -0.379629 )     2.22273649
  WF centre and spread    4  ( -0.379629, -0.379629,  0.379629 )     2.22273649
  Sum of centres and spreads ( -0.000000, -0.000000, -0.000000 )     8.89094597

    291     0.266E-13     0.0000001730        8.8909459004       0.98  <-- CONV
        O_D=      0.0024879 O_OD=      1.7357397 O_TOT=      8.8909459 <-- SPRD
 Delta: O_D=  0.4909181E-13 O_OD= -0.2331468E-13 O_TOT=  0.2664535E-13 <-- DLTA
 ------------------------------------------------------------------------------
 Cycle:    292
  WF centre and spread    1  (  0.379629,  0.379629,  0.379629 )     2.22273649
  WF centre and spread    2  (  0.379629, -0.379629, -0.379629 )     2.22273651
  WF centre and spread    3  ( -0.379629,  0.379629, -0.379629 )     2.22273649
  WF centre and spread    4  ( -0.379629, -0.379629,  0.379629 )     2.22273649
  Sum of centres and spreads ( -0.000000, -0.000000, -0.000000 )     8.89094597

    292    -0.711E-14     0.0000001730        8.8909459004       0.98  <-- CONV
        O_D=      0.0024879 O_OD=      1.7357397 O_TOT=      8.8909459 <-- SPRD
 Delta: O_D=  0.5765419E-11 O_OD= -0.5772272E-11 O_TOT= -0.7105427E-14 <-- DLTA
 ------------------------------------------------------------------------------
 Cycle:    293
  WF centre and spread    1  (  0.379629,  0.379629,  0.379629 )     2.22273649
  WF centre and spread    2  (  0.379629, -0.379629, -0.379629 )     2.22273651
  WF centre and spread    3  ( -0.379629,  0.379629, -0.379629 )     2.22273649
  WF centre and spread    4  ( -0.379629, -0.379629,  0.379629 )     2.22273649
  Sum of centres and spreads ( -0.000000, -0.000000, -0.000000 )     8.89094597

    293    -0.533E-14     0.0000001724        8.8909459004       0.98  <-- CONV
        O_D=      0.0024879 O_OD=      1.7357397 O_TOT=      8.8909459 <-- SPRD
 Delta: O_D=  0.8602674E-11 O_OD= -0.8607337E-11 O_TOT= -0.5329071E-14 <-- DLTA
 ------------------------------------------------------------------------------
 Cycle:    294
  WF centre and spread    1  (  0.379629,  0.379629,  0.379629 )     2.22273649
  WF centre and spread    2  (  0.379629, -0.379629, -0.379629 )     2.22273651
  WF centre and spread    3  ( -0.379629,  0.379629, -0.379629 )     2.22273649
  WF centre and spread    4  ( -0.379629, -0.379629,  0.379629 )     2.22273649
  Sum of centres and spreads ( -0.000000, -0.000000, -0.000000 )     8.89094597

    294    -0.178E-14     0.0000001716        8.8909459004       0.99  <-- CONV
        O_D=      0.0024879 O_OD=      1.7357397 O_TOT=      8.8909459 <-- SPRD
 Delta: O_D=  0.2455216E-11 O_OD= -0.2458034E-11 O_TOT= -0.1776357E-14 <-- DLTA
 ------------------------------------------------------------------------------
 Cycle:    295
  WF centre and spread    1  (  0.379629,  0.379629,  0.379629 )     2.22273649
  WF centre and spread    2  (  0.379629, -0.379629, -0.379629 )     2.22273651
  WF centre and spread    3  ( -0.379629,  0.379629, -0.379629 )     2.22273649
  WF centre and spread    4  ( -0.379629, -0.379629,  0.379629 )     2.22273649
  Sum of centres and spreads ( -0.000000, -0.000000, -0.000000 )     8.89094597

    295    -0.124E-13     0.0000001713        8.8909459004       0.99  <-- CONV
        O_D=      0.0024879 O_OD=      1.7357397 O_TOT=      8.8909459 <-- SPRD
 Delta: O_D=  0.1420896E-10 O_OD= -0.1422196E-10 O_TOT= -0.1243450E-13 <-- DLTA
 ------------------------------------------------------------------------------
 Cycle:    296
  WF centre and spread    1  (  0.379629,  0.379629,  0.379629 )     2.22273649
  WF centre and spread    2  (  0.379629, -0.379629, -0.379629 )     2.22273651
  WF centre and spread    3  ( -0.379629,  0.379629, -0.379629 )     2.22273649
  WF centre and spread    4  ( -0.379629, -0.379629,  0.379629 )     2.22273649
  Sum of centres and spreads ( -0.000000, -0.000000, -0.000000 )     8.89094597

    296    -0.533E-14     0.0000001699        8.8909459004       0.99  <-- CONV
        O_D=      0.0024879 O_OD=      1.7357397 O_TOT=      8.8909459 <-- SPRD
 Delta: O_D=  0.1681934E-10 O_OD= -0.1682343E-10 O_TOT= -0.5329071E-14 <-- DLTA
 ------------------------------------------------------------------------------
 Cycle:    297
  WF centre and spread    1  (  0.379629,  0.379629,  0.379629 )     2.22273649
  WF centre and spread    2  (  0.379629, -0.379629, -0.379629 )     2.22273651
  WF centre and spread    3  ( -0.379629,  0.379629, -0.379629 )     2.22273649
  WF centre and spread    4  ( -0.379629, -0.379629,  0.379629 )     2.22273649
  Sum of centres and spreads ( -0.000000, -0.000000, -0.000000 )     8.89094597

    297     0.533E-14     0.0000001683        8.8909459004       1.00  <-- CONV
        O_D=      0.0024879 O_OD=      1.7357397 O_TOT=      8.8909459 <-- SPRD
 Delta: O_D=  0.9626761E-13 O_OD= -0.9126033E-13 O_TOT=  0.5329071E-14 <-- DLTA
 ------------------------------------------------------------------------------
 Cycle:    298
  WF centre and spread    1  (  0.379629,  0.379629,  0.379629 )     2.22273649
  WF centre and spread    2  (  0.379629, -0.379629, -0.379629 )     2.22273651
  WF centre and spread    3  ( -0.379629,  0.379629, -0.379629 )     2.22273649
  WF centre and spread    4  ( -0.379629, -0.379629,  0.379629 )     2.22273649
  Sum of centres and spreads ( -0.000000, -0.000000, -0.000000 )     8.89094597

    298    -0.355E-14     0.0000001683        8.8909459004       1.00  <-- CONV
        O_D=      0.0024879 O_OD=      1.7357397 O_TOT=      8.8909459 <-- SPRD
 Delta: O_D=  0.5629658E-11 O_OD= -0.5632605E-11 O_TOT= -0.3552714E-14 <-- DLTA
 ------------------------------------------------------------------------------
 Cycle:    299
  WF centre and spread    1  (  0.379629,  0.379629,  0.379629 )     2.22273649
  WF centre and spread    2  (  0.379629, -0.379629, -0.379629 )     2.22273651
  WF centre and spread    3  ( -0.379629,  0.379629, -0.379629 )     2.22273649
  WF centre and spread    4  ( -0.379629, -0.379629,  0.379629 )     2.22273649
  Sum of centres and spreads ( -0.000000, -0.000000, -0.000000 )     8.89094597

    299    -0.355E-14     0.0000001677        8.8909459004       1.01  <-- CONV
        O_D=      0.0024879 O_OD=      1.7357397 O_TOT=      8.8909459 <-- SPRD
 Delta: O_D=  0.5042624E-12 O_OD= -0.5073719E-12 O_TOT= -0.3552714E-14 <-- DLTA
 ------------------------------------------------------------------------------
 Cycle:    300
  WF centre and spread    1  (  0.379629,  0.379629,  0.379629 )     2.22273649
  WF centre and spread    2  (  0.379629, -0.379629, -0.379629 )     2.22273651
  WF centre and spread    3  ( -0.379629,  0.379629, -0.379629 )     2.22273649
  WF centre and spread    4  ( -0.379629, -0.379629,  0.379629 )     2.22273649
  Sum of centres and spreads ( -0.000000, -0.000000, -0.000000 )     8.89094597

    300    -0.355E-14     0.0000001677        8.8909459004       1.01  <-- CONV
        O_D=      0.0024879 O_OD=      1.7357397 O_TOT=      8.8909459 <-- SPRD
 Delta: O_D=  0.1120144E-10 O_OD= -0.1120526E-10 O_TOT= -0.3552714E-14 <-- DLTA
 ------------------------------------------------------------------------------

 Writing checkpoint file pb.chk... done

 Final State
  WF centre and spread    1  (  0.379629,  0.379629,  0.379629 )     2.22273649
  WF centre and spread    2  (  0.379629, -0.379629, -0.379629 )     2.22273651
  WF centre and spread    3  ( -0.379629,  0.379629, -0.379629 )     2.22273649
  WF centre and spread    4  ( -0.379629, -0.379629,  0.379629 )     2.22273649
  Sum of centres and spreads ( -0.000000, -0.000000, -0.000000 )     8.89094597

         Spreads (Ang^2)       Omega I      =     7.152718313
        ================       Omega D      =     0.002487853
                               Omega OD     =     1.735739735
    Final Spread (Ang^2)       Omega Total  =     8.890945900
 ------------------------------------------------------------------------------

 Writing checkpoint file pb.chk... done

 Time for wannierise            0.912 (sec)
 *---------------------------------------------------------------------------*
 |                               PLOTTING                                    |
 *---------------------------------------------------------------------------*

 Time for plotting              0.133 (sec)
 Total Execution Time           1.440 (sec)

 *===========================================================================*
 |                             TIMING INFORMATION                            |
 *===========================================================================*
 |    Tag                                                Ncalls      Time (s)|
 |---------------------------------------------------------------------------|
 |kmesh: get                                        :         2         0.677|
 |kmesh: write                                      :         1         0.002|
 |overlap: allocate                                 :         1         0.000|
 |dis: main                                         :         1         0.054|
 |wann: main                                        :         1         0.911|
 |plot: main                                        :         1         0.133|
 *---------------------------------------------------------------------------*

 All done: wannier90 exiting
