
     Program PWSCF v.6.7MaX starts on 15Jun2021 at 22:47:12 

     This program is part of the open-source Quantum ESPRESSO suite
     for quantum simulation of materials; please cite
         "P. Giannozzi et al., J. Phys.:Condens. Matter 21 395502 (2009);
         "P. Giannozzi et al., J. Phys.:Condens. Matter 29 465901 (2017);
          URL http://www.quantum-espresso.org", 
     in publications or presentations arising from this work. More details at
     http://www.quantum-espresso.org/quote

     Parallel version (MPI & OpenMP), running on       4 processor cores
     Number of MPI processes:                 4
     Threads/MPI process:                     1

     MPI processes distributed on     1 nodes
     K-points division:     npool     =       4
     Reading input from sic.scf.in

     Current dimensions of program PWSCF are:
     Max number of different atomic species (ntypx) = 10
     Max number of k-points (npk) =  40000
     Max angular momentum in pseudopotentials (lmaxx) =  3
     file C.UPF: wavefunction(s)  3d renormalized

     Subspace diagonalization in iterative solution of the eigenvalue problem:
     a serial algorithm will be used


     G-vector sticks info
     --------------------
     sticks:   dense  smooth     PW     G-vecs:    dense   smooth      PW
     Sum         283     283     91                 3119     3119     609



     bravais-lattice index     =            2
     lattice parameter (alat)  =       8.2370  a.u.
     unit-cell volume          =     139.7163 (a.u.)^3
     number of atoms/cell      =            2
     number of atomic types    =            2
     number of electrons       =         8.00
     number of Kohn-Sham states=            4
     kinetic-energy cutoff     =      30.0000  Ry
     charge density cutoff     =     120.0000  Ry
     scf convergence threshold =      1.0E-10
     mixing beta               =       0.7000
     number of iterations used =            8  plain     mixing
     Exchange-correlation=  SLA  PZ   NOGX NOGC
                           (   1   1   0   0   0   0   0)

     celldm(1)=   8.237000  celldm(2)=   0.000000  celldm(3)=   0.000000
     celldm(4)=   0.000000  celldm(5)=   0.000000  celldm(6)=   0.000000

     crystal axes: (cart. coord. in units of alat)
               a(1) = (  -0.500000   0.000000   0.500000 )  
               a(2) = (   0.000000   0.500000   0.500000 )  
               a(3) = (  -0.500000   0.500000   0.000000 )  

     reciprocal axes: (cart. coord. in units 2 pi/alat)
               b(1) = ( -1.000000 -1.000000  1.000000 )  
               b(2) = (  1.000000  1.000000  1.000000 )  
               b(3) = ( -1.000000  1.000000 -1.000000 )  


     PseudoPot. # 1 for Si read from file:
     ../Si.pz-vbc.UPF
     MD5 check sum: 6dfa03ddd5817404712e03e4d12deb78
     Pseudo is Norm-conserving, Zval =  4.0
     Generated by new atomic code, or converted to UPF format
     Using radial grid of  431 points,  2 beta functions with: 
                l(1) =   0
                l(2) =   1

     PseudoPot. # 2 for C  read from file:
     ../C.UPF
     MD5 check sum: 4781e8ce5ee01a432381f51d0ea25c53
     Pseudo is Norm-conserving, Zval =  4.0
     Generated by new atomic code, or converted to UPF format
     Using radial grid of  461 points,  2 beta functions with: 
                l(1) =   0
                l(2) =   1

     atomic species   valence    mass     pseudopotential
        Si             4.00    28.08550     Si( 1.00)
        C              4.00    12.01078     C ( 1.00)

     24 Sym. Ops. (no inversion) found



   Cartesian axes

     site n.     atom                  positions (alat units)
         1           Si  tau(   1) = (   0.0000000   0.0000000   0.0000000  )
         2           C   tau(   2) = (   0.2500000   0.2500000   0.2500000  )

     number of k points=    29
                       cart. coord. in units 2pi/alat
        k(    1) = (   0.0000000   0.0000000   0.0000000), wk =   0.0039062
        k(    2) = (  -0.1250000   0.1250000  -0.1250000), wk =   0.0312500
        k(    3) = (  -0.2500000   0.2500000  -0.2500000), wk =   0.0312500
        k(    4) = (  -0.3750000   0.3750000  -0.3750000), wk =   0.0312500
        k(    5) = (   0.5000000  -0.5000000   0.5000000), wk =   0.0156250
        k(    6) = (   0.0000000   0.2500000   0.0000000), wk =   0.0234375
        k(    7) = (  -0.1250000   0.3750000  -0.1250000), wk =   0.0937500
        k(    8) = (  -0.2500000   0.5000000  -0.2500000), wk =   0.0937500
        k(    9) = (   0.6250000  -0.3750000   0.6250000), wk =   0.0937500
        k(   10) = (   0.5000000  -0.2500000   0.5000000), wk =   0.0937500
        k(   11) = (   0.3750000  -0.1250000   0.3750000), wk =   0.0937500
        k(   12) = (   0.2500000   0.0000000   0.2500000), wk =   0.0468750
        k(   13) = (   0.0000000   0.5000000   0.0000000), wk =   0.0234375
        k(   14) = (  -0.1250000   0.6250000  -0.1250000), wk =   0.0937500
        k(   15) = (   0.7500000  -0.2500000   0.7500000), wk =   0.0937500
        k(   16) = (   0.6250000  -0.1250000   0.6250000), wk =   0.0937500
        k(   17) = (   0.5000000   0.0000000   0.5000000), wk =   0.0468750
        k(   18) = (   0.0000000   0.7500000   0.0000000), wk =   0.0234375
        k(   19) = (   0.8750000  -0.1250000   0.8750000), wk =   0.0937500
        k(   20) = (   0.7500000   0.0000000   0.7500000), wk =   0.0468750
        k(   21) = (   0.0000000  -1.0000000   0.0000000), wk =   0.0117188
        k(   22) = (  -0.2500000   0.5000000   0.0000000), wk =   0.0937500
        k(   23) = (   0.6250000  -0.3750000   0.8750000), wk =   0.1875000
        k(   24) = (   0.5000000  -0.2500000   0.7500000), wk =   0.0937500
        k(   25) = (   0.7500000  -0.2500000   1.0000000), wk =   0.0937500
        k(   26) = (   0.6250000  -0.1250000   0.8750000), wk =   0.1875000
        k(   27) = (   0.5000000   0.0000000   0.7500000), wk =   0.0937500
        k(   28) = (  -0.2500000  -1.0000000   0.0000000), wk =   0.0468750
        k(   29) = (  -0.5000000  -1.0000000   0.0000000), wk =   0.0234375

     Dense  grid:     3119 G-vectors     FFT dimensions: (  24,  24,  24)

     Estimated max dynamical RAM per process >       2.91 MB

     Estimated total dynamical RAM >      11.64 MB

     Initial potential from superposition of free atoms

     starting charge    7.99947, renormalised to    8.00000
     Starting wfcs are   13 randomized atomic wfcs

     total cpu time spent up to now is        0.1 secs

     Self-consistent Calculation

     iteration #  1     ecut=    30.00 Ry     beta= 0.70
     Davidson diagonalization with overlap
     ethr =  1.00E-02,  avg # of iterations =  2.0

     total cpu time spent up to now is        0.1 secs

     total energy              =     -19.21615930 Ry
     estimated scf accuracy    <       0.36084683 Ry

     iteration #  2     ecut=    30.00 Ry     beta= 0.70
     Davidson diagonalization with overlap
     ethr =  4.51E-03,  avg # of iterations =  2.0

     total cpu time spent up to now is        0.2 secs

     total energy              =     -19.32621007 Ry
     estimated scf accuracy    <       0.09315468 Ry

     iteration #  3     ecut=    30.00 Ry     beta= 0.70
     Davidson diagonalization with overlap
     ethr =  1.16E-03,  avg # of iterations =  2.0

     total cpu time spent up to now is        0.2 secs

     total energy              =     -19.33482174 Ry
     estimated scf accuracy    <       0.00295892 Ry

     iteration #  4     ecut=    30.00 Ry     beta= 0.70
     Davidson diagonalization with overlap
     ethr =  3.70E-05,  avg # of iterations =  2.8

     total cpu time spent up to now is        0.2 secs

     total energy              =     -19.33610365 Ry
     estimated scf accuracy    <       0.00196979 Ry

     iteration #  5     ecut=    30.00 Ry     beta= 0.70
     Davidson diagonalization with overlap
     ethr =  2.46E-05,  avg # of iterations =  2.0

     total cpu time spent up to now is        0.2 secs

     total energy              =     -19.33662508 Ry
     estimated scf accuracy    <       0.00010978 Ry

     iteration #  6     ecut=    30.00 Ry     beta= 0.70
     Davidson diagonalization with overlap
     ethr =  1.37E-06,  avg # of iterations =  2.0

     total cpu time spent up to now is        0.3 secs

     total energy              =     -19.33662781 Ry
     estimated scf accuracy    <       0.00000917 Ry

     iteration #  7     ecut=    30.00 Ry     beta= 0.70
     Davidson diagonalization with overlap
     ethr =  1.15E-07,  avg # of iterations =  2.6

     total cpu time spent up to now is        0.3 secs

     total energy              =     -19.33663229 Ry
     estimated scf accuracy    <       0.00000179 Ry

     iteration #  8     ecut=    30.00 Ry     beta= 0.70
     Davidson diagonalization with overlap
     ethr =  2.24E-08,  avg # of iterations =  1.9

     total cpu time spent up to now is        0.3 secs

     total energy              =     -19.33663240 Ry
     estimated scf accuracy    <       0.00000014 Ry

     iteration #  9     ecut=    30.00 Ry     beta= 0.70
     Davidson diagonalization with overlap
     ethr =  1.74E-09,  avg # of iterations =  2.0

     total cpu time spent up to now is        0.3 secs

     total energy              =     -19.33663244 Ry
     estimated scf accuracy    <          8.6E-09 Ry

     iteration # 10     ecut=    30.00 Ry     beta= 0.70
     Davidson diagonalization with overlap
     ethr =  1.07E-10,  avg # of iterations =  2.6

     total cpu time spent up to now is        0.3 secs

     total energy              =     -19.33663244 Ry
     estimated scf accuracy    <          1.6E-10 Ry

     iteration # 11     ecut=    30.00 Ry     beta= 0.70
     Davidson diagonalization with overlap
     ethr =  2.01E-12,  avg # of iterations =  2.5

     total cpu time spent up to now is        0.4 secs

     End of self-consistent calculation

          k = 0.0000 0.0000 0.0000 (   387 PWs)   bands (ev):

    -6.1066   9.3595   9.3595   9.3595

          k =-0.1250 0.1250-0.1250 (   381 PWs)   bands (ev):

    -5.8018   7.8671   9.1540   9.1540

          k =-0.2500 0.2500-0.2500 (   380 PWs)   bands (ev):

    -4.9080   5.0145   8.7504   8.7504

          k =-0.3750 0.3750-0.3750 (   389 PWs)   bands (ev):

    -3.5469   2.2539   8.3999   8.3999

          k = 0.5000-0.5000 0.5000 (   392 PWs)   bands (ev):

    -2.5141   0.7239   8.2747   8.2747

          k = 0.0000 0.2500 0.0000 (   371 PWs)   bands (ev):

    -5.6994   8.2483   8.6722   8.6722

          k =-0.1250 0.3750-0.1250 (   378 PWs)   bands (ev):

    -5.0009   6.0114   8.1085   8.3560

          k =-0.2500 0.5000-0.2500 (   390 PWs)   bands (ev):

    -3.7797   3.2762   7.7359   7.7908

          k = 0.6250-0.3750 0.6250 (   387 PWs)   bands (ev):

    -2.4447   1.1827   7.1754   7.8371

          k = 0.5000-0.2500 0.5000 (   385 PWs)   bands (ev):

    -2.8302   1.7318   6.8982   8.2123

          k = 0.3750-0.1250 0.3750 (   389 PWs)   bands (ev):

    -4.2370   4.1674   7.0328   8.7578

          k = 0.2500 0.0000 0.2500 (   381 PWs)   bands (ev):

    -5.2997   6.6397   7.8310   9.1995

          k = 0.0000 0.5000 0.0000 (   375 PWs)   bands (ev):

    -4.5047   5.9911   7.4040   7.4040

          k =-0.1250 0.6250-0.1250 (   389 PWs)   bands (ev):

    -3.4713   4.1821   6.4928   6.9912

          k = 0.7500-0.2500 0.7500 (   390 PWs)   bands (ev):

    -2.1382   2.2298   5.3277   7.0050

          k = 0.6250-0.1250 0.6250 (   394 PWs)   bands (ev):

    -1.8254   1.8556   4.6238   7.4280

          k = 0.5000 0.0000 0.5000 (   399 PWs)   bands (ev):

    -3.0724   3.3537   4.9311   8.1365

          k = 0.0000 0.7500 0.0000 (   387 PWs)   bands (ev):

    -2.6502   3.3763   6.4491   6.4491

          k = 0.8750-0.1250 0.8750 (   391 PWs)   bands (ev):

    -1.5316   2.2018   5.2113   6.3461

          k = 0.7500 0.0000 0.7500 (   391 PWs)   bands (ev):

    -1.0561   2.0306   3.7158   6.7035

          k = 0.0000-1.0000 0.0000 (   388 PWs)   bands (ev):

    -1.0625   1.5029   6.1085   6.1085

          k =-0.2500 0.5000 0.0000 (   387 PWs)   bands (ev):

    -4.1315   4.8270   6.4413   8.0552

          k = 0.6250-0.3750 0.8750 (   393 PWs)   bands (ev):

    -2.8233   2.7776   5.6933   7.3845

          k = 0.5000-0.2500 0.7500 (   384 PWs)   bands (ev):

    -1.8628   1.4467   5.5960   7.0500

          k = 0.7500-0.2500 1.0000 (   391 PWs)   bands (ev):

    -2.3543   3.1257   5.4492   6.1685

          k = 0.6250-0.1250 0.8750 (   390 PWs)   bands (ev):

    -1.2693   2.1670   4.2772   5.8894

          k = 0.5000 0.0000 0.7500 (   391 PWs)   bands (ev):

    -1.6279   2.4676   4.0055   6.4672

          k =-0.2500-1.0000 0.0000 (   384 PWs)   bands (ev):

    -0.9473   1.8185   5.2168   5.2377

          k =-0.5000-1.0000 0.0000 (   396 PWs)   bands (ev):

    -0.8218   2.2843   4.2724   4.5705

     highest occupied level (ev):     9.3595

!    total energy              =     -19.33663244 Ry
     estimated scf accuracy    <          4.0E-11 Ry

     The total energy is the sum of the following terms:
     one-electron contribution =       5.37020014 Ry
     hartree contribution      =       2.26719811 Ry
     xc contribution           =      -6.04680745 Ry
     ewald contribution        =     -20.92722324 Ry

     convergence has been achieved in  11 iterations

     Writing output data file ./sic.save/

     init_run     :      0.05s CPU      0.07s WALL (       1 calls)
     electrons    :      0.25s CPU      0.26s WALL (       1 calls)

     Called by init_run:
     wfcinit      :      0.02s CPU      0.03s WALL (       1 calls)
     potinit      :      0.00s CPU      0.00s WALL (       1 calls)
     hinit0       :      0.02s CPU      0.03s WALL (       1 calls)

     Called by electrons:
     c_bands      :      0.20s CPU      0.20s WALL (      11 calls)
     sum_band     :      0.04s CPU      0.04s WALL (      11 calls)
     v_of_rho     :      0.01s CPU      0.01s WALL (      12 calls)
     mix_rho      :      0.00s CPU      0.01s WALL (      11 calls)

     Called by c_bands:
     init_us_2    :      0.01s CPU      0.01s WALL (     184 calls)
     cegterg      :      0.18s CPU      0.18s WALL (      88 calls)

     Called by *egterg:
     cdiaghg      :      0.01s CPU      0.01s WALL (     285 calls)
     h_psi        :      0.18s CPU      0.18s WALL (     293 calls)
     g_psi        :      0.00s CPU      0.00s WALL (     197 calls)

     Called by h_psi:
     h_psi:calbec :      0.00s CPU      0.00s WALL (     293 calls)
     vloc_psi     :      0.17s CPU      0.17s WALL (     293 calls)
     add_vuspsi   :      0.00s CPU      0.00s WALL (     293 calls)

     General routines
     calbec       :      0.00s CPU      0.00s WALL (     293 calls)
     fft          :      0.01s CPU      0.01s WALL (      35 calls)
     ffts         :      0.00s CPU      0.00s WALL (      11 calls)
     fftw         :      0.18s CPU      0.18s WALL (    2614 calls)

     Parallel routines

     PWSCF        :      0.34s CPU      0.38s WALL


   This run was terminated on:  22:47:12  15Jun2021            

=------------------------------------------------------------------------------=
   JOB DONE.
=------------------------------------------------------------------------------=
