
             +---------------------------------------------------+
             |                                                   |
             |                   WANNIER90                       |
             |                                                   |
             +---------------------------------------------------+
             |                                                   |
             |        Welcome to the Maximally-Localized         |
             |        Generalized Wannier Functions code         |
             |            http://www.wannier.org                 |
             |                                                   |
             |                                                   |
             |  Wannier90 Developer Group:                       |
             |    Giovanni Pizzi    (EPFL)                       |
             |    Valerio Vitale    (Cambridge)                  |
             |    David Vanderbilt  (Rutgers University)         |
             |    Nicola Marzari    (EPFL)                       |
             |    Ivo Souza         (Universidad del Pais Vasco) |
             |    Arash A. Mostofi  (Imperial College London)    |
             |    Jonathan R. Yates (University of Oxford)       |
             |                                                   |
             |  For the full list of Wannier90 3.x authors,      |
             |  please check the code documentation and the      |
             |  README on the GitHub page of the code            |
             |                                                   |
             |                                                   |
             |  Please cite                                      |
             |                                                   |
             |  [ref] "Wannier90 as a community code:            |
             |        new features and applications",            |
             |        G. Pizzi et al., J. Phys. Cond. Matt. 32,  |
             |        165902 (2020).                             |
             |        http://doi.org/10.1088/1361-648X/ab51ff    |
             |                                                   |
             |  in any publications arising from the use of      |
             |  this code. For the method please cite            |
             |                                                   |
             |  [ref] "Maximally Localized Generalised Wannier   |
             |         Functions for Composite Energy Bands"     |
             |         N. Marzari and D. Vanderbilt              |
             |         Phys. Rev. B 56 12847 (1997)              |
             |                                                   |
             |  [ref] "Maximally Localized Wannier Functions     |
             |         for Entangled Energy Bands"               |
             |         I. Souza, N. Marzari and D. Vanderbilt    |
             |         Phys. Rev. B 65 035109 (2001)             |
             |                                                   |
             |                                                   |
             | Copyright (c) 1996-2020                           |
             |        The Wannier90 Developer Group and          |
             |        individual contributors                    |
             |                                                   |
             |      Release: 3.1.0        5th March    2020      |
             |                                                   |
             | This program is free software; you can            |
             | redistribute it and/or modify it under the terms  |
             | of the GNU General Public License as published by |
             | the Free Software Foundation; either version 2 of |
             | the License, or (at your option) any later version|
             |                                                   |
             | This program is distributed in the hope that it   |
             | will be useful, but WITHOUT ANY WARRANTY; without |
             | even the implied warranty of MERCHANTABILITY or   |
             | FITNESS FOR A PARTICULAR PURPOSE. See the GNU     |
             | General Public License for more details.          |
             |                                                   |
             | You should have received a copy of the GNU General|
             | Public License along with this program; if not,   |
             | write to the Free Software Foundation, Inc.,      |
             | 675 Mass Ave, Cambridge, MA 02139, USA.           |
             |                                                   |
             +---------------------------------------------------+
             |    Execution started on 14Jun2021 at 23:55:15     |
             +---------------------------------------------------+
 
 ******************************************************************************
 * -> Using CODATA 2006 constant values                                       *
 *    (http://physics.nist.gov/cuu/Constants/index.html)                      *
 * -> Using Bohr value from CODATA                                            *
 ******************************************************************************
 

 Running in serial (with serial executable)

                                    ------
                                    SYSTEM
                                    ------

                              Lattice Vectors (Ang)
                    a_1    -2.475359   0.000000   2.475359
                    a_2     0.000000   2.475359   2.475359
                    a_3    -2.475359   2.475359   0.000000

                   Unit Cell Volume:      30.33503  (Ang^3)

                        Reciprocal-Space Vectors (Ang^-1)
                    b_1    -1.269146  -1.269146   1.269146
                    b_2     1.269146   1.269146   1.269146
                    b_3    -1.269146   1.269146  -1.269146
  
 *----------------------------------------------------------------------------*
 |   Site       Fractional Coordinate          Cartesian Coordinate (Ang)     |
 +----------------------------------------------------------------------------+
 | Pb   1   0.00000   0.00000   0.00000   |    0.00000   0.00000   0.00000    |
 *----------------------------------------------------------------------------*
                                ------------
                                K-POINT GRID
                                ------------
  
             Grid size =  8 x  8 x  8      Total points =  512
  
  
 *---------------------------------- MAIN ------------------------------------*
 |  Number of Wannier Functions               :                 9             |
 |  Number of Objective Wannier Functions     :                 9             |
 |  Number of input Bloch states              :                13             |
 |  Output verbosity (1=low, 5=high)          :                 1             |
 |  Timing Level (1=low, 5=high)              :                 1             |
 |  Optimisation (0=memory, 3=speed)          :                 3             |
 |  Length Unit                               :               Ang             |
 |  Post-processing setup (write *.nnkp)      :                 F             |
 |  Using Gamma-only branch of algorithms     :                 F             |
 *----------------------------------------------------------------------------*
 *------------------------------- WANNIERISE ---------------------------------*
 |  Total number of iterations                :               200             |
 |  Number of CG steps before reset           :                 5             |
 |  Trial step length for line search         :             2.000             |
 |  Convergence tolerence                     :         0.100E-09             |
 |  Convergence window                        :                -1             |
 |  Iterations between writing output         :                 1             |
 |  Iterations between backing up to disk     :               100             |
 |  Write r^2_nm to file                      :                 F             |
 |  Write xyz WF centres to file              :                 F             |
 |  Write on-site energies <0n|H|0n> to file  :                 F             |
 |  Use guiding centre to control phases      :                 F             |
 |  Use phases for initial projections        :                 F             |
 *----------------------------------------------------------------------------*
 *------------------------------- DISENTANGLE --------------------------------*
 |  Using band disentanglement                :                 T             |
 |  Total number of iterations                :                50             |
 |  Mixing ratio                              :             1.000             |
 |  Convergence tolerence                     :         1.000E-10             |
 |  Convergence window                        :                 3             |
 *----------------------------------------------------------------------------*
 Time to read parameters        0.053 (sec)

 *---------------------------------- K-MESH ----------------------------------*
 +----------------------------------------------------------------------------+
 |                    Distance to Nearest-Neighbour Shells                    |
 |                    ------------------------------------                    |
 |          Shell             Distance (Ang^-1)          Multiplicity         |
 |          -----             -----------------          ------------         |
 |             1                   0.274778                      8            |
 |             2                   0.317287                      6            |
 |             3                   0.448711                     12            |
 |             4                   0.526160                     24            |
 |             5                   0.549557                      8            |
 |             6                   0.634573                      6            |
 |             7                   0.691510                     24            |
 |             8                   0.709474                     24            |
 |             9                   0.777190                     24            |
 |            10                   0.824335                     32            |
 |            11                   0.897422                     12            |
 |            12                   0.938546                     48            |
 |            13                   0.951860                     30            |
 |            14                   1.003348                     24            |
 |            15                   1.040294                     24            |
 |            16                   1.052321                     24            |
 |            17                   1.099113                      8            |
 |            18                   1.132940                     48            |
 |            19                   1.143993                     24            |
 |            20                   1.187178                     48            |
 |            21                   1.218562                     72            |
 |            22                   1.269146                      6            |
 |            23                   1.298551                     24            |
 |            24                   1.308206                     48            |
 |            25                   1.346133                     36            |
 |            26                   1.373891                     56            |
 |            27                   1.383020                     24            |
 |            28                   1.418949                     24            |
 |            29                   1.445309                     72            |
 |            30                   1.453990                     48            |
 |            31                   1.488206                     24            |
 |            32                   1.513361                     48            |
 |            33                   1.554381                     24            |
 |            34                   1.578481                     72            |
 |            35                   1.586433                     30            |
 |            36                   1.617851                     72            |
 +----------------------------------------------------------------------------+
 | The b-vectors are chosen automatically                                     |
 | The following shells are used:   1                                         |
 +----------------------------------------------------------------------------+
 |                        Shell   # Nearest-Neighbours                        |
 |                        -----   --------------------                        |
 |                          1               8                                 |
 +----------------------------------------------------------------------------+
 | Completeness relation is fully satisfied [Eq. (B1), PRB 56, 12847 (1997)]  |
 +----------------------------------------------------------------------------+
 |                  b_k Vectors (Ang^-1) and Weights (Ang^2)                  |
 |                  ----------------------------------------                  |
 |            No.         b_k(x)      b_k(y)      b_k(z)        w_b           |
 |            ---        --------------------------------     --------        |
 |             1        -0.158643    0.158643   -0.158643     4.966684        |
 |             2         0.158643    0.158643    0.158643     4.966684        |
 |             3        -0.158643   -0.158643    0.158643     4.966684        |
 |             4        -0.158643    0.158643    0.158643     4.966684        |
 |             5         0.158643   -0.158643    0.158643     4.966684        |
 |             6        -0.158643   -0.158643   -0.158643     4.966684        |
 |             7         0.158643    0.158643   -0.158643     4.966684        |
 |             8         0.158643   -0.158643   -0.158643     4.966684        |
 +----------------------------------------------------------------------------+
 |                           b_k Directions (Ang^-1)                          |
 |                           -----------------------                          |
 |            No.           x           y           z                         |
 |            ---        --------------------------------                     |
 |             1        -0.158643    0.158643   -0.158643                     |
 |             2         0.158643    0.158643    0.158643                     |
 |             3        -0.158643   -0.158643    0.158643                     |
 |             4        -0.158643    0.158643    0.158643                     |
 +----------------------------------------------------------------------------+
  
 Time to get kmesh              0.744 (sec)
 *============================================================================*
 |                              MEMORY ESTIMATE                               |
 |         Maximum RAM allocated during each phase of the calculation         |
 *============================================================================*
 |                        Disentanglement           18.45 Mb                  |
 |                            Wannierise:           15.23 Mb                  |
 |                          plot_wannier:           15.23 Mb                  |
 *----------------------------------------------------------------------------*
  
 Starting a new Wannier90 calculation ...


 Reading overlaps from ex3.mmn    :  Created on 14Jun2021 at 23:55: 1

 Reading projections from ex3.amn :  Created on 14Jun2021 at 23:53:42

 Time to read overlaps          0.867 (sec)

 *------------------------------- DISENTANGLE --------------------------------*
 +----------------------------------------------------------------------------+
 |                              Energy  Windows                               |
 |                              ---------------                               |
 |                   Outer:   -5.97701  to   38.00000  (eV)                   |
 |                   Inner:   -5.97701  to   16.00000  (eV)                   |
 +----------------------------------------------------------------------------+
   Number of target bands to extract:    9

                   Unitarised projection of Wannier functions                  
                   ------------------------------------------                  
   A_mn = <psi_m|g_n> --> S = A.A^+ --> U = S^-1/2.A
   In dis_project... done
   Using an inner window (linner = T)
   In dis_proj_froz... done

                   Extraction of optimally-connected subspace                  
                   ------------------------------------------                  
 +---------------------------------------------------------------------+<-- DIS
 |  Iter     Omega_I(i-1)      Omega_I(i)      Delta (frac.)    Time   |<-- DIS
 +---------------------------------------------------------------------+<-- DIS
       1      10.88867840      10.51864836       3.518E-02      0.00    <-- DIS
       2      10.51121631      10.50234576       8.446E-04      0.02    <-- DIS
       3      10.50185204      10.50131829       5.083E-05      0.03    <-- DIS
       4      10.50122575      10.50113650       8.499E-06      0.05    <-- DIS
       5      10.50111212      10.50109055       2.053E-06      0.07    <-- DIS
       6      10.50108352      10.50107803       5.227E-07      0.08    <-- DIS
       7      10.50107586      10.50107450       1.297E-07      0.10    <-- DIS
       8      10.50107377      10.50107346       2.953E-08      0.12    <-- DIS
       9      10.50107320      10.50107314       5.221E-09      0.13    <-- DIS
      10      10.50107303      10.50107303       1.360E-11      0.15    <-- DIS
      11      10.50107299      10.50107300      -7.079E-10      0.17    <-- DIS
      12      10.50107297      10.50107298      -5.545E-10      0.18    <-- DIS
      13      10.50107297      10.50107297      -3.356E-10      0.20    <-- DIS
      14      10.50107297      10.50107297      -1.858E-10      0.22    <-- DIS
      15      10.50107297      10.50107297      -9.895E-11      0.24    <-- DIS
      16      10.50107297      10.50107297      -5.174E-11      0.25    <-- DIS
      17      10.50107297      10.50107297      -2.681E-11      0.27    <-- DIS

             <<<      Delta < 1.000E-10  over  3 iterations     >>>
             <<< Disentanglement convergence criteria satisfied >>>

        Final Omega_I    10.50107297 (Ang^2)

 +----------------------------------------------------------------------------+

 Time to disentangle bands      0.361 (sec)

 Writing checkpoint file ex3.chk... done


 *------------------------------- WANNIERISE ---------------------------------*
 +--------------------------------------------------------------------+<-- CONV
 | Iter  Delta Spread     RMS Gradient      Spread (Ang^2)      Time  |<-- CONV
 +--------------------------------------------------------------------+<-- CONV

 ------------------------------------------------------------------------------
 Initial State
  WF centre and spread    1  (  0.375657,  0.375583,  0.375440 )     2.70122576
  WF centre and spread    2  (  0.375638, -0.375422, -0.375410 )     2.70099379
  WF centre and spread    3  ( -0.375453,  0.375337, -0.375339 )     2.70073696
  WF centre and spread    4  ( -0.375284, -0.375252,  0.375248 )     2.70019537
  WF centre and spread    5  ( -0.000000, -0.000000, -0.000000 )     0.63170227
  WF centre and spread    6  (  0.000000, -0.000000,  0.000001 )     0.62739603
  WF centre and spread    7  ( -0.000001, -0.000000, -0.000001 )     0.62740016
  WF centre and spread    8  (  0.000000, -0.000000,  0.000000 )     0.63171487
  WF centre and spread    9  ( -0.000001, -0.000000,  0.000000 )     0.62736221
  Sum of centres and spreads (  0.000557,  0.000245, -0.000060 )    13.94872742

      0     0.139E+02     0.0000000000       13.9487274247       0.32  <-- CONV
        O_D=      0.0718134 O_OD=      3.3758410 O_TOT=     13.9487274 <-- SPRD
 ------------------------------------------------------------------------------
 Cycle:      1
  WF centre and spread    1  (  0.374921,  0.374855,  0.374706 )     2.63487153
  WF centre and spread    2  (  0.374909, -0.374685, -0.374681 )     2.63465504
  WF centre and spread    3  ( -0.374721,  0.374602, -0.374614 )     2.63442675
  WF centre and spread    4  ( -0.374547, -0.374524,  0.374529 )     2.63390789
  WF centre and spread    5  ( -0.000000,  0.000000,  0.000000 )     0.58864501
  WF centre and spread    6  (  0.000002,  0.000000, -0.000002 )     0.58597204
  WF centre and spread    7  ( -0.000000,  0.000001,  0.000001 )     0.58595959
  WF centre and spread    8  ( -0.000000, -0.000000,  0.000000 )     0.58862604
  WF centre and spread    9  (  0.000004,  0.000001,  0.000000 )     0.58593366
  Sum of centres and spreads (  0.000568,  0.000249, -0.000060 )    13.47299754

      1    -0.476E+00     0.2958206576       13.4729975442       0.36  <-- CONV
        O_D=      0.0320767 O_OD=      2.9398479 O_TOT=     13.4729975 <-- SPRD
 Delta: O_D= -0.3973673E-01 O_OD= -0.4359932E+00 O_TOT= -0.4757299E+00 <-- DLTA
 ------------------------------------------------------------------------------
 Cycle:      2
  WF centre and spread    1  (  0.374317,  0.374257,  0.374107 )     2.59862196
  WF centre and spread    2  (  0.374310, -0.374084, -0.374085 )     2.59839778
  WF centre and spread    3  ( -0.374123,  0.373999, -0.374022 )     2.59817075
  WF centre and spread    4  ( -0.373947, -0.373928,  0.373942 )     2.59763521
  WF centre and spread    5  (  0.000000,  0.000000,  0.000000 )     0.57117634
  WF centre and spread    6  (  0.000002,  0.000000, -0.000003 )     0.56837712
  WF centre and spread    7  ( -0.000000,  0.000001,  0.000002 )     0.56836680
  WF centre and spread    8  ( -0.000000, -0.000000, -0.000000 )     0.57115271
  WF centre and spread    9  (  0.000005,  0.000002,  0.000000 )     0.56827861
  Sum of centres and spreads (  0.000564,  0.000247, -0.000059 )    13.24017730

      2    -0.233E+00     0.2759952779       13.2401772952       0.40  <-- CONV
        O_D=      0.0129754 O_OD=      2.7261289 O_TOT=     13.2401773 <-- SPRD
 Delta: O_D= -0.1910129E-01 O_OD= -0.2137190E+00 O_TOT= -0.2328202E+00 <-- DLTA
 ------------------------------------------------------------------------------
 Cycle:      3
  WF centre and spread    1  (  0.374422,  0.374366,  0.374214 )     2.58165458
  WF centre and spread    2  (  0.374418, -0.374188, -0.374194 )     2.58146329
  WF centre and spread    3  ( -0.374230,  0.374103, -0.374134 )     2.58128811
  WF centre and spread    4  ( -0.374052, -0.374036,  0.374056 )     2.58081160
  WF centre and spread    5  (  0.000000,  0.000000,  0.000000 )     0.56214823
  WF centre and spread    6  (  0.000002, -0.000000, -0.000003 )     0.56157173
  WF centre and spread    7  ( -0.000000,  0.000001,  0.000002 )     0.56156782
  WF centre and spread    8  ( -0.000000, -0.000000, -0.000000 )     0.56213822
  WF centre and spread    9  (  0.000005,  0.000002,  0.000000 )     0.56154652
  Sum of centres and spreads (  0.000565,  0.000247, -0.000059 )    13.13419010

      3    -0.106E+00     0.2206198384       13.1341901008       0.44  <-- CONV
        O_D=      0.0064394 O_OD=      2.6266777 O_TOT=     13.1341901 <-- SPRD
 Delta: O_D= -0.6536036E-02 O_OD= -0.9945116E-01 O_TOT= -0.1059872E+00 <-- DLTA
 ------------------------------------------------------------------------------
 Cycle:      4
  WF centre and spread    1  (  0.375030,  0.374978,  0.374820 )     2.57433870
  WF centre and spread    2  (  0.375030, -0.374795, -0.374804 )     2.57415701
  WF centre and spread    3  ( -0.374841,  0.374711, -0.374746 )     2.57399811
  WF centre and spread    4  ( -0.374658, -0.374647,  0.374670 )     2.57353734
  WF centre and spread    5  ( -0.000000,  0.000000,  0.000000 )     0.55879169
  WF centre and spread    6  (  0.000002, -0.000000, -0.000002 )     0.55927937
  WF centre and spread    7  ( -0.000000,  0.000001,  0.000002 )     0.55928383
  WF centre and spread    8  ( -0.000001, -0.000000, -0.000000 )     0.55879164
  WF centre and spread    9  (  0.000005,  0.000002,  0.000000 )     0.55927283
  Sum of centres and spreads (  0.000566,  0.000248, -0.000059 )    13.09145052

      4    -0.427E-01     0.1366627087       13.0914505220       0.48  <-- CONV
        O_D=      0.0048306 O_OD=      2.5855469 O_TOT=     13.0914505 <-- SPRD
 Delta: O_D= -0.1608736E-02 O_OD= -0.4113084E-01 O_TOT= -0.4273958E-01 <-- DLTA
 ------------------------------------------------------------------------------
 Cycle:      5
  WF centre and spread    1  (  0.375908,  0.375861,  0.375698 )     2.57076045
  WF centre and spread    2  (  0.375912, -0.375674, -0.375684 )     2.57058240
  WF centre and spread    3  ( -0.375722,  0.375589, -0.375629 )     2.57043132
  WF centre and spread    4  ( -0.375537, -0.375529,  0.375555 )     2.56997533
  WF centre and spread    5  ( -0.000000,  0.000000,  0.000000 )     0.55757000
  WF centre and spread    6  (  0.000001, -0.000001, -0.000002 )     0.55892687
  WF centre and spread    7  ( -0.000001,  0.000000,  0.000002 )     0.55893423
  WF centre and spread    8  ( -0.000001, -0.000000, -0.000000 )     0.55757165
  WF centre and spread    9  (  0.000004,  0.000001,  0.000000 )     0.55892701
  Sum of centres and spreads (  0.000565,  0.000247, -0.000059 )    13.07367926

      5    -0.178E-01     0.0856520314       13.0736792554       0.51  <-- CONV
        O_D=      0.0047423 O_OD=      2.5678640 O_TOT=     13.0736793 <-- SPRD
 Delta: O_D= -0.8836031E-04 O_OD= -0.1768291E-01 O_TOT= -0.1777127E-01 <-- DLTA
 ------------------------------------------------------------------------------
 Cycle:      6
  WF centre and spread    1  (  0.377536,  0.377495,  0.377325 )     2.56637244
  WF centre and spread    2  (  0.377545, -0.377300, -0.377314 )     2.56619657
  WF centre and spread    3  ( -0.377355,  0.377215, -0.377263 )     2.56605137
  WF centre and spread    4  ( -0.377163, -0.377162,  0.377192 )     2.56559636
  WF centre and spread    5  ( -0.000000, -0.000000,  0.000000 )     0.55712859
  WF centre and spread    6  (  0.000001, -0.000001, -0.000002 )     0.55986472
  WF centre and spread    7  ( -0.000001,  0.000000,  0.000002 )     0.55987675
  WF centre and spread    8  ( -0.000001, -0.000001, -0.000000 )     0.55712747
  WF centre and spread    9  (  0.000003,  0.000001,  0.000001 )     0.55986451
  Sum of centres and spreads (  0.000565,  0.000247, -0.000059 )    13.05807879

      6    -0.156E-01     0.0653178625       13.0580787860       0.55  <-- CONV
        O_D=      0.0041545 O_OD=      2.5528514 O_TOT=     13.0580788 <-- SPRD
 Delta: O_D= -0.5878359E-03 O_OD= -0.1501263E-01 O_TOT= -0.1560047E-01 <-- DLTA
 ------------------------------------------------------------------------------
 Cycle:      7
  WF centre and spread    1  (  0.377866,  0.377826,  0.377654 )     2.56479278
  WF centre and spread    2  (  0.377876, -0.377630, -0.377645 )     2.56461843
  WF centre and spread    3  ( -0.377685,  0.377544, -0.377594 )     2.56447630
  WF centre and spread    4  ( -0.377492, -0.377492,  0.377524 )     2.56402356
  WF centre and spread    5  ( -0.000001, -0.000000,  0.000000 )     0.55662783
  WF centre and spread    6  (  0.000001, -0.000001, -0.000001 )     0.55984306
  WF centre and spread    7  ( -0.000001,  0.000000,  0.000002 )     0.55985649
  WF centre and spread    8  ( -0.000001, -0.000001, -0.000000 )     0.55662786
  WF centre and spread    9  (  0.000003,  0.000001,  0.000001 )     0.55984644
  Sum of centres and spreads (  0.000566,  0.000247, -0.000059 )    13.05071272

      7    -0.737E-02     0.0667707912       13.0507127244       0.59  <-- CONV
        O_D=      0.0038385 O_OD=      2.5458012 O_TOT=     13.0507127 <-- SPRD
 Delta: O_D= -0.3159197E-03 O_OD= -0.7050142E-02 O_TOT= -0.7366062E-02 <-- DLTA
 ------------------------------------------------------------------------------
 Cycle:      8
  WF centre and spread    1  (  0.378967,  0.378932,  0.378753 )     2.56187696
  WF centre and spread    2  (  0.378982, -0.378729, -0.378747 )     2.56170422
  WF centre and spread    3  ( -0.378789,  0.378643, -0.378699 )     2.56156790
  WF centre and spread    4  ( -0.378591, -0.378596,  0.378632 )     2.56111384
  WF centre and spread    5  ( -0.000001, -0.000000,  0.000000 )     0.55663357
  WF centre and spread    6  (  0.000000, -0.000001, -0.000001 )     0.56111581
  WF centre and spread    7  ( -0.000001, -0.000000,  0.000001 )     0.56113384
  WF centre and spread    8  ( -0.000002, -0.000001, -0.000000 )     0.55663300
  WF centre and spread    9  (  0.000002,  0.000000,  0.000001 )     0.56112162
  Sum of centres and spreads (  0.000568,  0.000248, -0.000060 )    13.04290076

      8    -0.781E-02     0.0453580055       13.0429007593       0.63  <-- CONV
        O_D=      0.0039086 O_OD=      2.5379192 O_TOT=     13.0429008 <-- SPRD
 Delta: O_D=  0.7002907E-04 O_OD= -0.7881994E-02 O_TOT= -0.7811965E-02 <-- DLTA
 ------------------------------------------------------------------------------
 Cycle:      9
  WF centre and spread    1  (  0.381967,  0.381945,  0.381751 )     2.55388996
  WF centre and spread    2  (  0.381994, -0.381726, -0.381753 )     2.55371745
  WF centre and spread    3  ( -0.381798,  0.381639, -0.381713 )     2.55359644
  WF centre and spread    4  ( -0.381587, -0.381605,  0.381652 )     2.55312450
  WF centre and spread    5  ( -0.000001, -0.000001,  0.000001 )     0.55748599
  WF centre and spread    6  ( -0.000000, -0.000002,  0.000001 )     0.56622602
  WF centre and spread    7  ( -0.000002, -0.000001,  0.000000 )     0.56626165
  WF centre and spread    8  ( -0.000002, -0.000001, -0.000000 )     0.55748243
  WF centre and spread    9  ( -0.000001, -0.000001,  0.000001 )     0.56623169
  Sum of centres and spreads (  0.000570,  0.000249, -0.000060 )    13.02801613

      9    -0.149E-01     0.0539671489       13.0280161251       0.67  <-- CONV
        O_D=      0.0042530 O_OD=      2.5226901 O_TOT=     13.0280161 <-- SPRD
 Delta: O_D=  0.3444722E-03 O_OD= -0.1522911E-01 O_TOT= -0.1488463E-01 <-- DLTA
 ------------------------------------------------------------------------------
 Cycle:     10
  WF centre and spread    1  (  0.389217,  0.389230,  0.388994 )     2.52922473
  WF centre and spread    2  (  0.389276, -0.388967, -0.389017 )     2.52905392
  WF centre and spread    3  ( -0.389072,  0.388880, -0.388998 )     2.52901026
  WF centre and spread    4  ( -0.388828, -0.388878,  0.388955 )     2.52845192
  WF centre and spread    5  ( -0.000003, -0.000001,  0.000001 )     0.55946741
  WF centre and spread    6  ( -0.000001, -0.000003,  0.000005 )     0.58636011
  WF centre and spread    7  ( -0.000003, -0.000001, -0.000003 )     0.58646154
  WF centre and spread    8  ( -0.000004, -0.000002, -0.000000 )     0.55945961
  WF centre and spread    9  ( -0.000006, -0.000004,  0.000002 )     0.58637280
  Sum of centres and spreads (  0.000577,  0.000253, -0.000061 )    12.99386230

     10    -0.342E-01     0.0790622263       12.9938623043       0.71  <-- CONV
        O_D=      0.0071004 O_OD=      2.4856889 O_TOT=     12.9938623 <-- SPRD
 Delta: O_D=  0.2847399E-02 O_OD= -0.3700122E-01 O_TOT= -0.3415382E-01 <-- DLTA
 ------------------------------------------------------------------------------
 Cycle:     11
  WF centre and spread    1  (  0.400041,  0.400114,  0.399805 )     2.46820521
  WF centre and spread    2  (  0.400155, -0.399778, -0.399866 )     2.46804941
  WF centre and spread    3  ( -0.399938,  0.399691, -0.399885 )     2.46821735
  WF centre and spread    4  ( -0.399639, -0.399746,  0.399874 )     2.46746947
  WF centre and spread    5  ( -0.000007, -0.000003,  0.000002 )     0.56156314
  WF centre and spread    6  (  0.000003, -0.000005,  0.000016 )     0.64665888
  WF centre and spread    7  ( -0.000004,  0.000000, -0.000013 )     0.64686503
  WF centre and spread    8  ( -0.000007, -0.000004, -0.000000 )     0.56156197
  WF centre and spread    9  ( -0.000016, -0.000009,  0.000003 )     0.64670732
  Sum of centres and spreads (  0.000588,  0.000260, -0.000063 )    12.93529778

     11    -0.586E-01     0.1188108885       12.9352977783       0.74  <-- CONV
        O_D=      0.0116459 O_OD=      2.4225789 O_TOT=     12.9352978 <-- SPRD
 Delta: O_D=  0.4545503E-02 O_OD= -0.6311003E-01 O_TOT= -0.5856453E-01 <-- DLTA
 ------------------------------------------------------------------------------
 Cycle:     12
  WF centre and spread    1  (  0.407382,  0.407506,  0.407135 )     2.39080898
  WF centre and spread    2  (  0.407544, -0.407112, -0.407229 )     2.39067352
  WF centre and spread    3  ( -0.407320,  0.407025, -0.407284 )     2.39114318
  WF centre and spread    4  ( -0.406979, -0.407133,  0.407303 )     2.39013787
  WF centre and spread    5  ( -0.000010, -0.000004,  0.000003 )     0.56111834
  WF centre and spread    6  (  0.000011, -0.000008,  0.000029 )     0.73206197
  WF centre and spread    7  ( -0.000006,  0.000004, -0.000025 )     0.73231561
  WF centre and spread    8  ( -0.000011, -0.000006, -0.000000 )     0.56113041
  WF centre and spread    9  ( -0.000025, -0.000013,  0.000005 )     0.73212841
  Sum of centres and spreads (  0.000586,  0.000259, -0.000063 )    12.88151827

     12    -0.538E-01     0.1332701859       12.8815182743       0.78  <-- CONV
        O_D=      0.0126590 O_OD=      2.3677864 O_TOT=     12.8815183 <-- SPRD
 Delta: O_D=  0.1013015E-02 O_OD= -0.5479252E-01 O_TOT= -0.5377950E-01 <-- DLTA
 ------------------------------------------------------------------------------
 Cycle:     13
  WF centre and spread    1  (  0.407407,  0.407532,  0.407161 )     2.38669013
  WF centre and spread    2  (  0.407570, -0.407138, -0.407255 )     2.38656477
  WF centre and spread    3  ( -0.407348,  0.407051, -0.407311 )     2.38715875
  WF centre and spread    4  ( -0.407006, -0.407160,  0.407331 )     2.38604729
  WF centre and spread    5  ( -0.000010, -0.000004,  0.000003 )     0.55920832
  WF centre and spread    6  (  0.000011, -0.000008,  0.000029 )     0.73198939
  WF centre and spread    7  ( -0.000007,  0.000004, -0.000025 )     0.73224779
  WF centre and spread    8  ( -0.000011, -0.000006, -0.000000 )     0.55921719
  WF centre and spread    9  ( -0.000025, -0.000013,  0.000005 )     0.73205990
  Sum of centres and spreads (  0.000583,  0.000257, -0.000063 )    12.86118352

     13    -0.203E-01     0.1096173359       12.8611835191       0.82  <-- CONV
        O_D=      0.0101994 O_OD=      2.3499112 O_TOT=     12.8611835 <-- SPRD
 Delta: O_D= -0.2459600E-02 O_OD= -0.1787516E-01 O_TOT= -0.2033476E-01 <-- DLTA
 ------------------------------------------------------------------------------
 Cycle:     14
  WF centre and spread    1  (  0.407444,  0.407572,  0.407199 )     2.37973384
  WF centre and spread    2  (  0.407608, -0.407177, -0.407293 )     2.37956916
  WF centre and spread    3  ( -0.407389,  0.407087, -0.407350 )     2.37989858
  WF centre and spread    4  ( -0.407045, -0.407200,  0.407370 )     2.37897607
  WF centre and spread    5  ( -0.000011, -0.000005,  0.000003 )     0.55702386
  WF centre and spread    6  (  0.000013, -0.000008,  0.000030 )     0.73441537
  WF centre and spread    7  ( -0.000007,  0.000004, -0.000026 )     0.73450556
  WF centre and spread    8  ( -0.000011, -0.000006, -0.000000 )     0.55702476
  WF centre and spread    9  ( -0.000026, -0.000013,  0.000005 )     0.73443983
  Sum of centres and spreads (  0.000577,  0.000253, -0.000061 )    12.83558702

     14    -0.256E-01     0.0868966806       12.8355870211       0.86  <-- CONV
        O_D=      0.0068313 O_OD=      2.3276827 O_TOT=     12.8355870 <-- SPRD
 Delta: O_D= -0.3368014E-02 O_OD= -0.2222848E-01 O_TOT= -0.2559650E-01 <-- DLTA
 ------------------------------------------------------------------------------
 Cycle:     15
  WF centre and spread    1  (  0.407465,  0.407595,  0.407220 )     2.37552523
  WF centre and spread    2  (  0.407630, -0.407199, -0.407314 )     2.37531998
  WF centre and spread    3  ( -0.407411,  0.407107, -0.407371 )     2.37528468
  WF centre and spread    4  ( -0.407065, -0.407221,  0.407392 )     2.37464352
  WF centre and spread    5  ( -0.000012, -0.000005,  0.000003 )     0.55647516
  WF centre and spread    6  (  0.000014, -0.000009,  0.000031 )     0.73672625
  WF centre and spread    7  ( -0.000008,  0.000004, -0.000027 )     0.73675048
  WF centre and spread    8  ( -0.000011, -0.000006, -0.000000 )     0.55647507
  WF centre and spread    9  ( -0.000026, -0.000014,  0.000005 )     0.73672820
  Sum of centres and spreads (  0.000575,  0.000253, -0.000061 )    12.82392858

     15    -0.117E-01     0.0758100847       12.8239285774       0.90  <-- CONV
        O_D=      0.0048942 O_OD=      2.3179614 O_TOT=     12.8239286 <-- SPRD
 Delta: O_D= -0.1937150E-02 O_OD= -0.9721294E-02 O_TOT= -0.1165844E-01 <-- DLTA
 ------------------------------------------------------------------------------
 Cycle:     16
  WF centre and spread    1  (  0.407511,  0.407643,  0.407266 )     2.37339842
  WF centre and spread    2  (  0.407676, -0.407245, -0.407360 )     2.37318271
  WF centre and spread    3  ( -0.407459,  0.407151, -0.407418 )     2.37306308
  WF centre and spread    4  ( -0.407109, -0.407267,  0.407439 )     2.37247970
  WF centre and spread    5  ( -0.000012, -0.000005,  0.000004 )     0.55630393
  WF centre and spread    6  (  0.000014, -0.000009,  0.000032 )     0.73845275
  WF centre and spread    7  ( -0.000009,  0.000004, -0.000028 )     0.73847805
  WF centre and spread    8  ( -0.000011, -0.000006, -0.000000 )     0.55630433
  WF centre and spread    9  ( -0.000027, -0.000014,  0.000005 )     0.73845675
  Sum of centres and spreads (  0.000575,  0.000253, -0.000061 )    12.82011972

     16    -0.381E-02     0.0428987412       12.8201197236       0.93  <-- CONV
        O_D=      0.0046337 O_OD=      2.3144131 O_TOT=     12.8201197 <-- SPRD
 Delta: O_D= -0.2605364E-03 O_OD= -0.3548317E-02 O_TOT= -0.3808854E-02 <-- DLTA
 ------------------------------------------------------------------------------
 Cycle:     17
  WF centre and spread    1  (  0.407592,  0.407727,  0.407348 )     2.37156230
  WF centre and spread    2  (  0.407759, -0.407328, -0.407442 )     2.37134089
  WF centre and spread    3  ( -0.407542,  0.407232, -0.407500 )     2.37119203
  WF centre and spread    4  ( -0.407190, -0.407349,  0.407521 )     2.37061960
  WF centre and spread    5  ( -0.000012, -0.000005,  0.000004 )     0.55627789
  WF centre and spread    6  (  0.000015, -0.000009,  0.000033 )     0.74034279
  WF centre and spread    7  ( -0.000009,  0.000005, -0.000029 )     0.74037341
  WF centre and spread    8  ( -0.000011, -0.000006, -0.000000 )     0.55627826
  WF centre and spread    9  ( -0.000027, -0.000014,  0.000005 )     0.74034831
  Sum of centres and spreads (  0.000575,  0.000253, -0.000061 )    12.81833547

     17    -0.178E-02     0.0273711929       12.8183354706       0.97  <-- CONV
        O_D=      0.0045357 O_OD=      2.3127268 O_TOT=     12.8183355 <-- SPRD
 Delta: O_D= -0.9791051E-04 O_OD= -0.1686343E-02 O_TOT= -0.1784253E-02 <-- DLTA
 ------------------------------------------------------------------------------
 Cycle:     18
  WF centre and spread    1  (  0.407699,  0.407837,  0.407455 )     2.36980799
  WF centre and spread    2  (  0.407867, -0.407435, -0.407549 )     2.36958178
  WF centre and spread    3  ( -0.407651,  0.407337, -0.407608 )     2.36941212
  WF centre and spread    4  ( -0.407296, -0.407456,  0.407628 )     2.36884601
  WF centre and spread    5  ( -0.000013, -0.000006,  0.000004 )     0.55628387
  WF centre and spread    6  (  0.000016, -0.000010,  0.000034 )     0.74238242
  WF centre and spread    7  ( -0.000010,  0.000005, -0.000030 )     0.74241299
  WF centre and spread    8  ( -0.000011, -0.000006, -0.000000 )     0.55628408
  WF centre and spread    9  ( -0.000027, -0.000014,  0.000005 )     0.74238747
  Sum of centres and spreads (  0.000575,  0.000252, -0.000061 )    12.81739873

     18    -0.937E-03     0.0199427581       12.8173987289       1.01  <-- CONV
        O_D=      0.0044995 O_OD=      2.3118262 O_TOT=     12.8173987 <-- SPRD
 Delta: O_D= -0.3619813E-04 O_OD= -0.9005435E-03 O_TOT= -0.9367416E-03 <-- DLTA
 ------------------------------------------------------------------------------
 Cycle:     19
  WF centre and spread    1  (  0.407749,  0.407887,  0.407504 )     2.36911146
  WF centre and spread    2  (  0.407917, -0.407485, -0.407599 )     2.36888569
  WF centre and spread    3  ( -0.407702,  0.407387, -0.407658 )     2.36872281
  WF centre and spread    4  ( -0.407345, -0.407506,  0.407679 )     2.36814926
  WF centre and spread    5  ( -0.000013, -0.000006,  0.000004 )     0.55624592
  WF centre and spread    6  (  0.000017, -0.000010,  0.000034 )     0.74313767
  WF centre and spread    7  ( -0.000011,  0.000006, -0.000030 )     0.74317047
  WF centre and spread    8  ( -0.000011, -0.000006, -0.000000 )     0.55624611
  WF centre and spread    9  ( -0.000027, -0.000014,  0.000005 )     0.74314251
  Sum of centres and spreads (  0.000574,  0.000252, -0.000061 )    12.81681190

     19    -0.587E-03     0.0179589192       12.8168118999       1.05  <-- CONV
        O_D=      0.0044772 O_OD=      2.3112617 O_TOT=     12.8168119 <-- SPRD
 Delta: O_D= -0.2229421E-04 O_OD= -0.5645348E-03 O_TOT= -0.5868291E-03 <-- DLTA
 ------------------------------------------------------------------------------
 Cycle:     20
  WF centre and spread    1  (  0.407940,  0.408082,  0.407695 )     2.36655769
  WF centre and spread    2  (  0.408110, -0.407677, -0.407790 )     2.36632959
  WF centre and spread    3  ( -0.407897,  0.407575, -0.407850 )     2.36616600
  WF centre and spread    4  ( -0.407534, -0.407699,  0.407871 )     2.36558440
  WF centre and spread    5  ( -0.000014, -0.000006,  0.000004 )     0.55621802
  WF centre and spread    6  (  0.000019, -0.000011,  0.000036 )     0.74624242
  WF centre and spread    7  ( -0.000012,  0.000006, -0.000032 )     0.74627188
  WF centre and spread    8  ( -0.000011, -0.000006, -0.000000 )     0.55621793
  WF centre and spread    9  ( -0.000027, -0.000014,  0.000005 )     0.74624427
  Sum of centres and spreads (  0.000573,  0.000252, -0.000061 )    12.81583219

     20    -0.980E-03     0.0154180371       12.8158321881       1.09  <-- CONV
        O_D=      0.0045141 O_OD=      2.3102451 O_TOT=     12.8158322 <-- SPRD
 Delta: O_D=  0.3686363E-04 O_OD= -0.1016575E-02 O_TOT= -0.9797117E-03 <-- DLTA
 ------------------------------------------------------------------------------
 Cycle:     21
  WF centre and spread    1  (  0.408354,  0.408507,  0.408109 )     2.36064492
  WF centre and spread    2  (  0.408529, -0.408094, -0.408205 )     2.36041043
  WF centre and spread    3  ( -0.408320,  0.407986, -0.408269 )     2.36023760
  WF centre and spread    4  ( -0.407946, -0.408116,  0.408291 )     2.35964172
  WF centre and spread    5  ( -0.000015, -0.000007,  0.000004 )     0.55625228
  WF centre and spread    6  (  0.000023, -0.000012,  0.000039 )     0.75357114
  WF centre and spread    7  ( -0.000015,  0.000008, -0.000036 )     0.75359481
  WF centre and spread    8  ( -0.000011, -0.000006, -0.000000 )     0.55625189
  WF centre and spread    9  ( -0.000028, -0.000014,  0.000006 )     0.75356652
  Sum of centres and spreads (  0.000572,  0.000251, -0.000061 )    12.81417132

     21    -0.166E-02     0.0197293243       12.8141713233       1.12  <-- CONV
        O_D=      0.0045691 O_OD=      2.3085293 O_TOT=     12.8141713 <-- SPRD
 Delta: O_D=  0.5493763E-04 O_OD= -0.1715802E-02 O_TOT= -0.1660865E-02 <-- DLTA
 ------------------------------------------------------------------------------
 Cycle:     22
  WF centre and spread    1  (  0.409111,  0.409283,  0.408865 )     2.34855475
  WF centre and spread    2  (  0.409295, -0.408855, -0.408963 )     2.34831197
  WF centre and spread    3  ( -0.409093,  0.408733, -0.409032 )     2.34814317
  WF centre and spread    4  ( -0.408695, -0.408878,  0.409056 )     2.34750646
  WF centre and spread    5  ( -0.000019, -0.000008,  0.000005 )     0.55629430
  WF centre and spread    6  (  0.000032, -0.000016,  0.000046 )     0.76872942
  WF centre and spread    7  ( -0.000022,  0.000012, -0.000044 )     0.76875238
  WF centre and spread    8  ( -0.000012, -0.000007, -0.000000 )     0.55629428
  WF centre and spread    9  ( -0.000029, -0.000015,  0.000007 )     0.76871836
  Sum of centres and spreads (  0.000569,  0.000250, -0.000060 )    12.81130509

     22    -0.287E-02     0.0252212683       12.8113050913       1.16  <-- CONV
        O_D=      0.0049907 O_OD=      2.3052414 O_TOT=     12.8113051 <-- SPRD
 Delta: O_D=  0.4216854E-03 O_OD= -0.3287917E-02 O_TOT= -0.2866232E-02 <-- DLTA
 ------------------------------------------------------------------------------
 Cycle:     23
  WF centre and spread    1  (  0.410080,  0.410281,  0.409833 )     2.32995864
  WF centre and spread    2  (  0.410279, -0.409830, -0.409935 )     2.32970660
  WF centre and spread    3  ( -0.410086,  0.409690, -0.410012 )     2.32952862
  WF centre and spread    4  ( -0.409654, -0.409854,  0.410038 )     2.32885505
  WF centre and spread    5  ( -0.000024, -0.000010,  0.000006 )     0.55635857
  WF centre and spread    6  (  0.000045, -0.000021,  0.000056 )     0.79219510
  WF centre and spread    7  ( -0.000032,  0.000018, -0.000055 )     0.79223587
  WF centre and spread    8  ( -0.000012, -0.000008, -0.000000 )     0.55635896
  WF centre and spread    9  ( -0.000030, -0.000015,  0.000009 )     0.79217835
  Sum of centres and spreads (  0.000567,  0.000249, -0.000060 )    12.80737575

     23    -0.393E-02     0.0328930250       12.8073757548       1.21  <-- CONV
        O_D=      0.0053331 O_OD=      2.3009697 O_TOT=     12.8073758 <-- SPRD
 Delta: O_D=  0.3423755E-03 O_OD= -0.4271712E-02 O_TOT= -0.3929337E-02 <-- DLTA
 ------------------------------------------------------------------------------
 Cycle:     24
  WF centre and spread    1  (  0.410678,  0.410900,  0.410430 )     2.31555185
  WF centre and spread    2  (  0.410888, -0.410432, -0.410534 )     2.31529289
  WF centre and spread    3  ( -0.410701,  0.410278, -0.410618 )     2.31507557
  WF centre and spread    4  ( -0.410243, -0.410458,  0.410646 )     2.31441297
  WF centre and spread    5  ( -0.000027, -0.000012,  0.000006 )     0.55638649
  WF centre and spread    6  (  0.000054, -0.000026,  0.000064 )     0.81049910
  WF centre and spread    7  ( -0.000040,  0.000022, -0.000064 )     0.81054252
  WF centre and spread    8  ( -0.000012, -0.000008, -0.000000 )     0.55638687
  WF centre and spread    9  ( -0.000032, -0.000016,  0.000010 )     0.81047461
  Sum of centres and spreads (  0.000565,  0.000248, -0.000060 )    12.80462287

     24    -0.275E-02     0.0327622241       12.8046228742       1.24  <-- CONV
        O_D=      0.0053644 O_OD=      2.2981855 O_TOT=     12.8046229 <-- SPRD
 Delta: O_D=  0.3126732E-04 O_OD= -0.2784148E-02 O_TOT= -0.2752881E-02 <-- DLTA
 ------------------------------------------------------------------------------
 Cycle:     25
  WF centre and spread    1  (  0.410677,  0.410900,  0.410429 )     2.31479610
  WF centre and spread    2  (  0.410887, -0.410432, -0.410534 )     2.31453664
  WF centre and spread    3  ( -0.410701,  0.410276, -0.410618 )     2.31430221
  WF centre and spread    4  ( -0.410242, -0.410458,  0.410646 )     2.31366008
  WF centre and spread    5  ( -0.000027, -0.000012,  0.000006 )     0.55625972
  WF centre and spread    6  (  0.000055, -0.000026,  0.000064 )     0.81098594
  WF centre and spread    7  ( -0.000040,  0.000022, -0.000064 )     0.81101824
  WF centre and spread    8  ( -0.000012, -0.000008, -0.000000 )     0.55625995
  WF centre and spread    9  ( -0.000032, -0.000016,  0.000010 )     0.81095820
  Sum of centres and spreads (  0.000564,  0.000247, -0.000060 )    12.80277707

     25    -0.185E-02     0.0350794585       12.8027770707       1.28  <-- CONV
        O_D=      0.0050977 O_OD=      2.2966064 O_TOT=     12.8027771 <-- SPRD
 Delta: O_D= -0.2667015E-03 O_OD= -0.1579102E-02 O_TOT= -0.1845804E-02 <-- DLTA
 ------------------------------------------------------------------------------
 Cycle:     26
  WF centre and spread    1  (  0.410678,  0.410905,  0.410429 )     2.31306115
  WF centre and spread    2  (  0.410891, -0.410433, -0.410535 )     2.31280517
  WF centre and spread    3  ( -0.410705,  0.410277, -0.410621 )     2.31255652
  WF centre and spread    4  ( -0.410243, -0.410461,  0.410651 )     2.31194591
  WF centre and spread    5  ( -0.000028, -0.000012,  0.000006 )     0.55618932
  WF centre and spread    6  (  0.000056, -0.000026,  0.000065 )     0.81272564
  WF centre and spread    7  ( -0.000041,  0.000022, -0.000065 )     0.81274358
  WF centre and spread    8  ( -0.000012, -0.000008, -0.000000 )     0.55618908
  WF centre and spread    9  ( -0.000032, -0.000016,  0.000010 )     0.81269313
  Sum of centres and spreads (  0.000565,  0.000247, -0.000060 )    12.80090951

     26    -0.187E-02     0.0242660130       12.8009095075       1.33  <-- CONV
        O_D=      0.0048128 O_OD=      2.2950238 O_TOT=     12.8009095 <-- SPRD
 Delta: O_D= -0.2848989E-03 O_OD= -0.1582664E-02 O_TOT= -0.1867563E-02 <-- DLTA
 ------------------------------------------------------------------------------
 Cycle:     27
  WF centre and spread    1  (  0.410692,  0.410922,  0.410442 )     2.31143854
  WF centre and spread    2  (  0.410908, -0.410447, -0.410550 )     2.31118586
  WF centre and spread    3  ( -0.410721,  0.410289, -0.410637 )     2.31092473
  WF centre and spread    4  ( -0.410256, -0.410477,  0.410668 )     2.31034141
  WF centre and spread    5  ( -0.000028, -0.000012,  0.000006 )     0.55620837
  WF centre and spread    6  (  0.000057, -0.000026,  0.000066 )     0.81451656
  WF centre and spread    7  ( -0.000041,  0.000023, -0.000066 )     0.81453026
  WF centre and spread    8  ( -0.000012, -0.000008, -0.000000 )     0.55620809
  WF centre and spread    9  ( -0.000033, -0.000016,  0.000010 )     0.81448192
  Sum of centres and spreads (  0.000566,  0.000248, -0.000060 )    12.79983575

     27    -0.107E-02     0.0214294762       12.7998357539       1.37  <-- CONV
        O_D=      0.0046248 O_OD=      2.2941380 O_TOT=     12.7998358 <-- SPRD
 Delta: O_D= -0.1879518E-03 O_OD= -0.8858018E-03 O_TOT= -0.1073754E-02 <-- DLTA
 ------------------------------------------------------------------------------
 Cycle:     28
  WF centre and spread    1  (  0.410715,  0.410949,  0.410464 )     2.31024349
  WF centre and spread    2  (  0.410933, -0.410470, -0.410573 )     2.30999409
  WF centre and spread    3  ( -0.410747,  0.410312, -0.410662 )     2.30973501
  WF centre and spread    4  ( -0.410278, -0.410502,  0.410694 )     2.30916140
  WF centre and spread    5  ( -0.000028, -0.000012,  0.000007 )     0.55621805
  WF centre and spread    6  (  0.000058, -0.000026,  0.000067 )     0.81594078
  WF centre and spread    7  ( -0.000042,  0.000023, -0.000067 )     0.81595453
  WF centre and spread    8  ( -0.000011, -0.000008, -0.000000 )     0.55621800
  WF centre and spread    9  ( -0.000033, -0.000016,  0.000010 )     0.81590626
  Sum of centres and spreads (  0.000567,  0.000249, -0.000060 )    12.79937162

     28    -0.464E-03     0.0140950814       12.7993716184       1.41  <-- CONV
        O_D=      0.0046167 O_OD=      2.2936819 O_TOT=     12.7993716 <-- SPRD
 Delta: O_D= -0.8079242E-05 O_OD= -0.4560563E-03 O_TOT= -0.4641355E-03 <-- DLTA
 ------------------------------------------------------------------------------
 Cycle:     29
  WF centre and spread    1  (  0.410749,  0.410986,  0.410497 )     2.30904721
  WF centre and spread    2  (  0.410969, -0.410504, -0.410607 )     2.30880104
  WF centre and spread    3  ( -0.410783,  0.410344, -0.410697 )     2.30854725
  WF centre and spread    4  ( -0.410311, -0.410537,  0.410730 )     2.30797897
  WF centre and spread    5  ( -0.000029, -0.000013,  0.000007 )     0.55622365
  WF centre and spread    6  (  0.000059, -0.000027,  0.000068 )     0.81743314
  WF centre and spread    7  ( -0.000042,  0.000024, -0.000068 )     0.81744785
  WF centre and spread    8  ( -0.000011, -0.000008, -0.000000 )     0.55622373
  WF centre and spread    9  ( -0.000033, -0.000016,  0.000011 )     0.81739844
  Sum of centres and spreads (  0.000568,  0.000249, -0.000060 )    12.79910128

     29    -0.270E-03     0.0101282161       12.7991012776       1.45  <-- CONV
        O_D=      0.0046194 O_OD=      2.2934089 O_TOT=     12.7991013 <-- SPRD
 Delta: O_D=  0.2619765E-05 O_OD= -0.2729606E-03 O_TOT= -0.2703408E-03 <-- DLTA
 ------------------------------------------------------------------------------
 Cycle:     30
  WF centre and spread    1  (  0.410788,  0.411028,  0.410535 )     2.30790575
  WF centre and spread    2  (  0.411010, -0.410543, -0.410646 )     2.30766203
  WF centre and spread    3  ( -0.410824,  0.410381, -0.410738 )     2.30741095
  WF centre and spread    4  ( -0.410349, -0.410578,  0.410772 )     2.30684874
  WF centre and spread    5  ( -0.000029, -0.000013,  0.000007 )     0.55622111
  WF centre and spread    6  (  0.000060, -0.000027,  0.000069 )     0.81889651
  WF centre and spread    7  ( -0.000043,  0.000024, -0.000069 )     0.81891095
  WF centre and spread    8  ( -0.000011, -0.000008, -0.000000 )     0.55622120
  WF centre and spread    9  ( -0.000033, -0.000017,  0.000011 )     0.81886113
  Sum of centres and spreads (  0.000569,  0.000249, -0.000060 )    12.79893837

     30    -0.163E-03     0.0082220858       12.7989383722       1.49  <-- CONV
        O_D=      0.0046286 O_OD=      2.2932368 O_TOT=     12.7989384 <-- SPRD
 Delta: O_D=  0.9267259E-05 O_OD= -0.1721727E-03 O_TOT= -0.1629055E-03 <-- DLTA
 ------------------------------------------------------------------------------
 Cycle:     31
  WF centre and spread    1  (  0.410801,  0.411043,  0.410548 )     2.30759145
  WF centre and spread    2  (  0.411025, -0.410557, -0.410660 )     2.30734827
  WF centre and spread    3  ( -0.410839,  0.410395, -0.410752 )     2.30709923
  WF centre and spread    4  ( -0.410362, -0.410592,  0.410787 )     2.30653654
  WF centre and spread    5  ( -0.000029, -0.000013,  0.000007 )     0.55620768
  WF centre and spread    6  (  0.000061, -0.000027,  0.000069 )     0.81927975
  WF centre and spread    7  ( -0.000043,  0.000024, -0.000070 )     0.81929440
  WF centre and spread    8  ( -0.000011, -0.000008, -0.000000 )     0.55620775
  WF centre and spread    9  ( -0.000034, -0.000017,  0.000011 )     0.81924408
  Sum of centres and spreads (  0.000569,  0.000249, -0.000060 )    12.79880917

     31    -0.129E-03     0.0085920847       12.7988091687       1.52  <-- CONV
        O_D=      0.0046220 O_OD=      2.2931142 O_TOT=     12.7988092 <-- SPRD
 Delta: O_D= -0.6640044E-05 O_OD= -0.1225634E-03 O_TOT= -0.1292034E-03 <-- DLTA
 ------------------------------------------------------------------------------
 Cycle:     32
  WF centre and spread    1  (  0.410850,  0.411095,  0.410596 )     2.30649008
  WF centre and spread    2  (  0.411076, -0.410605, -0.410709 )     2.30624800
  WF centre and spread    3  ( -0.410891,  0.410442, -0.410803 )     2.30600180
  WF centre and spread    4  ( -0.410410, -0.410643,  0.410839 )     2.30544021
  WF centre and spread    5  ( -0.000030, -0.000013,  0.000007 )     0.55618597
  WF centre and spread    6  (  0.000062, -0.000027,  0.000070 )     0.82069789
  WF centre and spread    7  ( -0.000044,  0.000025, -0.000071 )     0.82071183
  WF centre and spread    8  ( -0.000011, -0.000008, -0.000000 )     0.55618592
  WF centre and spread    9  ( -0.000034, -0.000017,  0.000011 )     0.82066094
  Sum of centres and spreads (  0.000569,  0.000249, -0.000060 )    12.79862265

     32    -0.187E-03     0.0070025990       12.7986226526       1.56  <-- CONV
        O_D=      0.0046278 O_OD=      2.2929219 O_TOT=     12.7986227 <-- SPRD
 Delta: O_D=  0.5791735E-05 O_OD= -0.1923078E-03 O_TOT= -0.1865161E-03 <-- DLTA
 ------------------------------------------------------------------------------
 Cycle:     33
  WF centre and spread    1  (  0.410951,  0.411205,  0.410695 )     2.30403384
  WF centre and spread    2  (  0.411183, -0.410707, -0.410811 )     2.30379349
  WF centre and spread    3  ( -0.410999,  0.410540, -0.410909 )     2.30355238
  WF centre and spread    4  ( -0.410509, -0.410749,  0.410948 )     2.30299168
  WF centre and spread    5  ( -0.000031, -0.000014,  0.000007 )     0.55616393
  WF centre and spread    6  (  0.000065, -0.000028,  0.000073 )     0.82388651
  WF centre and spread    7  ( -0.000045,  0.000026, -0.000074 )     0.82389968
  WF centre and spread    8  ( -0.000010, -0.000007, -0.000000 )     0.55616371
  WF centre and spread    9  ( -0.000035, -0.000017,  0.000011 )     0.82384701
  Sum of centres and spreads (  0.000570,  0.000250, -0.000060 )    12.79833223

     33    -0.290E-03     0.0083810474       12.7983322273       1.60  <-- CONV
        O_D=      0.0046413 O_OD=      2.2926179 O_TOT=     12.7983322 <-- SPRD
 Delta: O_D=  0.1354395E-04 O_OD= -0.3039693E-03 O_TOT= -0.2904253E-03 <-- DLTA
 ------------------------------------------------------------------------------
 Cycle:     34
  WF centre and spread    1  (  0.411138,  0.411410,  0.410879 )     2.29903767
  WF centre and spread    2  (  0.411382, -0.410896, -0.411001 )     2.29879997
  WF centre and spread    3  ( -0.411201,  0.410721, -0.411105 )     2.29857007
  WF centre and spread    4  ( -0.410693, -0.410945,  0.411150 )     2.29800692
  WF centre and spread    5  ( -0.000033, -0.000014,  0.000007 )     0.55613168
  WF centre and spread    6  (  0.000072, -0.000030,  0.000079 )     0.83039812
  WF centre and spread    7  ( -0.000048,  0.000029, -0.000080 )     0.83041052
  WF centre and spread    8  ( -0.000009, -0.000007, -0.000000 )     0.55613145
  WF centre and spread    9  ( -0.000036, -0.000018,  0.000011 )     0.83035475
  Sum of centres and spreads (  0.000571,  0.000250, -0.000060 )    12.79784116

     34    -0.491E-03     0.0105299790       12.7978411552       1.64  <-- CONV
        O_D=      0.0047346 O_OD=      2.2920336 O_TOT=     12.7978412 <-- SPRD
 Delta: O_D=  0.9328498E-04 O_OD= -0.5843571E-03 O_TOT= -0.4910721E-03 <-- DLTA
 ------------------------------------------------------------------------------
 Cycle:     35
  WF centre and spread    1  (  0.411388,  0.411686,  0.411124 )     2.29136915
  WF centre and spread    2  (  0.411649, -0.411149, -0.411255 )     2.29113357
  WF centre and spread    3  ( -0.411472,  0.410962, -0.411369 )     2.29091461
  WF centre and spread    4  ( -0.410938, -0.411209,  0.411422 )     2.29034723
  WF centre and spread    5  ( -0.000036, -0.000016,  0.000007 )     0.55610993
  WF centre and spread    6  (  0.000081, -0.000032,  0.000087 )     0.84040476
  WF centre and spread    7  ( -0.000052,  0.000033, -0.000089 )     0.84041909
  WF centre and spread    8  ( -0.000008, -0.000007, -0.000000 )     0.55610980
  WF centre and spread    9  ( -0.000039, -0.000019,  0.000012 )     0.84035653
  Sum of centres and spreads (  0.000574,  0.000252, -0.000061 )    12.79716467

     35    -0.676E-03     0.0135734570       12.7971646721       1.68  <-- CONV
        O_D=      0.0048251 O_OD=      2.2912666 O_TOT=     12.7971647 <-- SPRD
 Delta: O_D=  0.9045708E-04 O_OD= -0.7669401E-03 O_TOT= -0.6764831E-03 <-- DLTA
 ------------------------------------------------------------------------------
 Cycle:     36
  WF centre and spread    1  (  0.411570,  0.411891,  0.411303 )     2.28463893
  WF centre and spread    2  (  0.411845, -0.411334, -0.411440 )     2.28440303
  WF centre and spread    3  ( -0.411672,  0.411137, -0.411563 )     2.28418604
  WF centre and spread    4  ( -0.411115, -0.411402,  0.411622 )     2.28361556
  WF centre and spread    5  ( -0.000038, -0.000017,  0.000008 )     0.55610973
  WF centre and spread    6  (  0.000089, -0.000034,  0.000094 )     0.84919857
  WF centre and spread    7  ( -0.000055,  0.000037, -0.000097 )     0.84921407
  WF centre and spread    8  ( -0.000007, -0.000006, -0.000000 )     0.55610961
  WF centre and spread    9  ( -0.000041, -0.000020,  0.000013 )     0.84914629
  Sum of centres and spreads (  0.000576,  0.000252, -0.000061 )    12.79662185

     36    -0.543E-03     0.0139217529       12.7966218471       1.72  <-- CONV
        O_D=      0.0048646 O_OD=      2.2906842 O_TOT=     12.7966218 <-- SPRD
 Delta: O_D=  0.3957583E-04 O_OD= -0.5824009E-03 O_TOT= -0.5428250E-03 <-- DLTA
 ------------------------------------------------------------------------------
 Cycle:     37
  WF centre and spread    1  (  0.411568,  0.411890,  0.411301 )     2.28436220
  WF centre and spread    2  (  0.411844, -0.411333, -0.411439 )     2.28412418
  WF centre and spread    3  ( -0.411672,  0.411135, -0.411561 )     2.28389829
  WF centre and spread    4  ( -0.411114, -0.411401,  0.411621 )     2.28333127
  WF centre and spread    5  ( -0.000039, -0.000017,  0.000008 )     0.55609449
  WF centre and spread    6  (  0.000089, -0.000034,  0.000095 )     0.84945488
  WF centre and spread    7  ( -0.000055,  0.000037, -0.000098 )     0.84946752
  WF centre and spread    8  ( -0.000007, -0.000006, -0.000000 )     0.55609436
  WF centre and spread    9  ( -0.000041, -0.000020,  0.000013 )     0.84940179
  Sum of centres and spreads (  0.000575,  0.000252, -0.000061 )    12.79622898

     37    -0.393E-03     0.0164972352       12.7962289814       1.77  <-- CONV
        O_D=      0.0047989 O_OD=      2.2903571 O_TOT=     12.7962290 <-- SPRD
 Delta: O_D= -0.6572740E-04 O_OD= -0.3271382E-03 O_TOT= -0.3928656E-03 <-- DLTA
 ------------------------------------------------------------------------------
 Cycle:     38
  WF centre and spread    1  (  0.411566,  0.411890,  0.411299 )     2.28368190
  WF centre and spread    2  (  0.411843, -0.411331, -0.411437 )     2.28343957
  WF centre and spread    3  ( -0.411672,  0.411131, -0.411560 )     2.28320217
  WF centre and spread    4  ( -0.411111, -0.411400,  0.411620 )     2.28263340
  WF centre and spread    5  ( -0.000039, -0.000017,  0.000008 )     0.55611449
  WF centre and spread    6  (  0.000090, -0.000034,  0.000095 )     0.85024659
  WF centre and spread    7  ( -0.000056,  0.000037, -0.000098 )     0.85025685
  WF centre and spread    8  ( -0.000006, -0.000006, -0.000000 )     0.55611431
  WF centre and spread    9  ( -0.000041, -0.000020,  0.000013 )     0.85019271
  Sum of centres and spreads (  0.000574,  0.000252, -0.000061 )    12.79588198

     38    -0.347E-03     0.0107314275       12.7958819800       1.81  <-- CONV
        O_D=      0.0047329 O_OD=      2.2900761 O_TOT=     12.7958820 <-- SPRD
 Delta: O_D= -0.6597761E-04 O_OD= -0.2810238E-03 O_TOT= -0.3470014E-03 <-- DLTA
 ------------------------------------------------------------------------------
 Cycle:     39
  WF centre and spread    1  (  0.411568,  0.411895,  0.411301 )     2.28299844
  WF centre and spread    2  (  0.411846, -0.411334, -0.411440 )     2.28275157
  WF centre and spread    3  ( -0.411676,  0.411133, -0.411564 )     2.28250326
  WF centre and spread    4  ( -0.411113, -0.411403,  0.411624 )     2.28193108
  WF centre and spread    5  ( -0.000039, -0.000017,  0.000008 )     0.55614985
  WF centre and spread    6  (  0.000091, -0.000034,  0.000096 )     0.85108159
  WF centre and spread    7  ( -0.000056,  0.000038, -0.000099 )     0.85109103
  WF centre and spread    8  ( -0.000006, -0.000006, -0.000000 )     0.55614970
  WF centre and spread    9  ( -0.000042, -0.000020,  0.000013 )     0.85102725
  Sum of centres and spreads (  0.000573,  0.000251, -0.000061 )    12.79568378

     39    -0.198E-03     0.0091650142       12.7956837772       1.85  <-- CONV
        O_D=      0.0046897 O_OD=      2.2899211 O_TOT=     12.7956838 <-- SPRD
 Delta: O_D= -0.4320214E-04 O_OD= -0.1550006E-03 O_TOT= -0.1982028E-03 <-- DLTA
 ------------------------------------------------------------------------------
 Cycle:     40
  WF centre and spread    1  (  0.411575,  0.411904,  0.411308 )     2.28244560
  WF centre and spread    2  (  0.411854, -0.411341, -0.411447 )     2.28219518
  WF centre and spread    3  ( -0.411685,  0.411138, -0.411572 )     2.28194008
  WF centre and spread    4  ( -0.411119, -0.411411,  0.411633 )     2.28136310
  WF centre and spread    5  ( -0.000039, -0.000017,  0.000008 )     0.55617105
  WF centre and spread    6  (  0.000092, -0.000034,  0.000097 )     0.85178448
  WF centre and spread    7  ( -0.000056,  0.000038, -0.000100 )     0.85179360
  WF centre and spread    8  ( -0.000006, -0.000006, -0.000000 )     0.55617099
  WF centre and spread    9  ( -0.000042, -0.000020,  0.000013 )     0.85172996
  Sum of centres and spreads (  0.000573,  0.000251, -0.000061 )    12.79559403

     40    -0.897E-04     0.0061779921       12.7955940292       1.89  <-- CONV
        O_D=      0.0046854 O_OD=      2.2898357 O_TOT=     12.7955940 <-- SPRD
 Delta: O_D= -0.4386037E-05 O_OD= -0.8536195E-04 O_TOT= -0.8974799E-04 <-- DLTA
 ------------------------------------------------------------------------------
 Cycle:     41
  WF centre and spread    1  (  0.411585,  0.411918,  0.411318 )     2.28187422
  WF centre and spread    2  (  0.411866, -0.411353, -0.411458 )     2.28162035
  WF centre and spread    3  ( -0.411698,  0.411147, -0.411583 )     2.28135917
  WF centre and spread    4  ( -0.411129, -0.411422,  0.411645 )     2.28077674
  WF centre and spread    5  ( -0.000040, -0.000017,  0.000008 )     0.55618374
  WF centre and spread    6  (  0.000093, -0.000034,  0.000098 )     0.85252972
  WF centre and spread    7  ( -0.000056,  0.000038, -0.000101 )     0.85253884
  WF centre and spread    8  ( -0.000006, -0.000006, -0.000000 )     0.55618374
  WF centre and spread    9  ( -0.000043, -0.000020,  0.000013 )     0.85247488
  Sum of centres and spreads (  0.000572,  0.000251, -0.000061 )    12.79554141

     41    -0.526E-04     0.0044705767       12.7955414077       1.93  <-- CONV
        O_D=      0.0046849 O_OD=      2.2897835 O_TOT=     12.7955414 <-- SPRD
 Delta: O_D= -0.4522788E-06 O_OD= -0.5216929E-04 O_TOT= -0.5262157E-04 <-- DLTA
 ------------------------------------------------------------------------------
 Cycle:     42
  WF centre and spread    1  (  0.411599,  0.411935,  0.411332 )     2.28127569
  WF centre and spread    2  (  0.411882, -0.411367, -0.411472 )     2.28101854
  WF centre and spread    3  ( -0.411715,  0.411159, -0.411598 )     2.28075138
  WF centre and spread    4  ( -0.411142, -0.411437,  0.411660 )     2.28016403
  WF centre and spread    5  ( -0.000040, -0.000018,  0.000008 )     0.55618833
  WF centre and spread    6  (  0.000094, -0.000034,  0.000099 )     0.85332225
  WF centre and spread    7  ( -0.000057,  0.000039, -0.000103 )     0.85333139
  WF centre and spread    8  ( -0.000005, -0.000006, -0.000000 )     0.55618835
  WF centre and spread    9  ( -0.000043, -0.000020,  0.000013 )     0.85326697
  Sum of centres and spreads (  0.000572,  0.000251, -0.000061 )    12.79550692

     42    -0.345E-04     0.0036735935       12.7955069203       1.97  <-- CONV
        O_D=      0.0046885 O_OD=      2.2897455 O_TOT=     12.7955069 <-- SPRD
 Delta: O_D=  0.3563551E-05 O_OD= -0.3805096E-04 O_TOT= -0.3448741E-04 <-- DLTA
 ------------------------------------------------------------------------------
 Cycle:     43
  WF centre and spread    1  (  0.411604,  0.411941,  0.411337 )     2.28112309
  WF centre and spread    2  (  0.411887, -0.411372, -0.411477 )     2.28086552
  WF centre and spread    3  ( -0.411721,  0.411164, -0.411604 )     2.28059779
  WF centre and spread    4  ( -0.411147, -0.411442,  0.411666 )     2.28000950
  WF centre and spread    5  ( -0.000040, -0.000018,  0.000008 )     0.55618330
  WF centre and spread    6  (  0.000094, -0.000034,  0.000100 )     0.85352022
  WF centre and spread    7  ( -0.000057,  0.000039, -0.000103 )     0.85352940
  WF centre and spread    8  ( -0.000005, -0.000006, -0.000000 )     0.55618331
  WF centre and spread    9  ( -0.000043, -0.000021,  0.000013 )     0.85346478
  Sum of centres and spreads (  0.000572,  0.000251, -0.000061 )    12.79547692

     43    -0.300E-04     0.0041432749       12.7954769173       2.01  <-- CONV
        O_D=      0.0046874 O_OD=      2.2897166 O_TOT=     12.7954769 <-- SPRD
 Delta: O_D= -0.1079601E-05 O_OD= -0.2892333E-04 O_TOT= -0.3000293E-04 <-- DLTA
 ------------------------------------------------------------------------------
 Cycle:     44
  WF centre and spread    1  (  0.411621,  0.411962,  0.411354 )     2.28058275
  WF centre and spread    2  (  0.411907, -0.411391, -0.411495 )     2.28032350
  WF centre and spread    3  ( -0.411742,  0.411180, -0.411623 )     2.28005292
  WF centre and spread    4  ( -0.411164, -0.411461,  0.411686 )     2.27946186
  WF centre and spread    5  ( -0.000041, -0.000018,  0.000008 )     0.55617255
  WF centre and spread    6  (  0.000096, -0.000035,  0.000101 )     0.85423842
  WF centre and spread    7  ( -0.000057,  0.000040, -0.000104 )     0.85424757
  WF centre and spread    8  ( -0.000005, -0.000006, -0.000000 )     0.55617251
  WF centre and spread    9  ( -0.000044, -0.000021,  0.000013 )     0.85418236
  Sum of centres and spreads (  0.000572,  0.000251, -0.000061 )    12.79543444

     44    -0.425E-04     0.0033485797       12.7954344382       2.05  <-- CONV
        O_D=      0.0046906 O_OD=      2.2896709 O_TOT=     12.7954344 <-- SPRD
 Delta: O_D=  0.3164922E-05 O_OD= -0.4564410E-04 O_TOT= -0.4247918E-04 <-- DLTA
 ------------------------------------------------------------------------------
 Cycle:     45
  WF centre and spread    1  (  0.411659,  0.412008,  0.411391 )     2.27934416
  WF centre and spread    2  (  0.411949, -0.411430, -0.411534 )     2.27908123
  WF centre and spread    3  ( -0.411786,  0.411214, -0.411664 )     2.27880435
  WF centre and spread    4  ( -0.411199, -0.411502,  0.411729 )     2.27820707
  WF centre and spread    5  ( -0.000042, -0.000018,  0.000008 )     0.55615739
  WF centre and spread    6  (  0.000098, -0.000035,  0.000104 )     0.85588779
  WF centre and spread    7  ( -0.000058,  0.000041, -0.000107 )     0.85589693
  WF centre and spread    8  ( -0.000004, -0.000005, -0.000000 )     0.55615725
  WF centre and spread    9  ( -0.000045, -0.000021,  0.000013 )     0.85583029
  Sum of centres and spreads (  0.000571,  0.000250, -0.000060 )    12.79536645

     45    -0.680E-04     0.0040211232       12.7953664542       2.09  <-- CONV
        O_D=      0.0046971 O_OD=      2.2895964 O_TOT=     12.7953665 <-- SPRD
 Delta: O_D=  0.6566783E-05 O_OD= -0.7455075E-04 O_TOT= -0.6798397E-04 <-- DLTA
 ------------------------------------------------------------------------------
 Cycle:     46
  WF centre and spread    1  (  0.411729,  0.412096,  0.411461 )     2.27681084
  WF centre and spread    2  (  0.412028, -0.411504, -0.411607 )     2.27654109
  WF centre and spread    3  ( -0.411871,  0.411276, -0.411742 )     2.27625301
  WF centre and spread    4  ( -0.411265, -0.411579,  0.411811 )     2.27564372
  WF centre and spread    5  ( -0.000044, -0.000019,  0.000008 )     0.55613591
  WF centre and spread    6  (  0.000104, -0.000036,  0.000110 )     0.85926035
  WF centre and spread    7  ( -0.000059,  0.000043, -0.000114 )     0.85926905
  WF centre and spread    8  ( -0.000003, -0.000005, -0.000000 )     0.55613572
  WF centre and spread    9  ( -0.000048, -0.000022,  0.000013 )     0.85920013
  Sum of centres and spreads (  0.000570,  0.000250, -0.000060 )    12.79524983

     46    -0.117E-03     0.0051595012       12.7952498294       2.13  <-- CONV
        O_D=      0.0047249 O_OD=      2.2894520 O_TOT=     12.7952498 <-- SPRD
 Delta: O_D=  0.2776477E-04 O_OD= -0.1443895E-03 O_TOT= -0.1166248E-03 <-- DLTA
 ------------------------------------------------------------------------------
 Cycle:     47
  WF centre and spread    1  (  0.411818,  0.412210,  0.411549 )     2.27313698
  WF centre and spread    2  (  0.412132, -0.411599, -0.411701 )     2.27285853
  WF centre and spread    3  ( -0.411982,  0.411356, -0.411843 )     2.27255565
  WF centre and spread    4  ( -0.411349, -0.411679,  0.411917 )     2.27193151
  WF centre and spread    5  ( -0.000046, -0.000020,  0.000008 )     0.55612091
  WF centre and spread    6  (  0.000111, -0.000037,  0.000118 )     0.86414270
  WF centre and spread    7  ( -0.000061,  0.000046, -0.000122 )     0.86415126
  WF centre and spread    8  ( -0.000001, -0.000004, -0.000000 )     0.55612071
  WF centre and spread    9  ( -0.000052, -0.000024,  0.000014 )     0.86407891
  Sum of centres and spreads (  0.000569,  0.000250, -0.000060 )    12.79509717

     47    -0.153E-03     0.0065589155       12.7950971674       2.16  <-- CONV
        O_D=      0.0047496 O_OD=      2.2892746 O_TOT=     12.7950972 <-- SPRD
 Delta: O_D=  0.2472757E-04 O_OD= -0.1773896E-03 O_TOT= -0.1526620E-03 <-- DLTA
 ------------------------------------------------------------------------------
 Cycle:     48
  WF centre and spread    1  (  0.411884,  0.412297,  0.411613 )     2.26990629
  WF centre and spread    2  (  0.412209, -0.411669, -0.411770 )     2.26962198
  WF centre and spread    3  ( -0.412066,  0.411412, -0.411919 )     2.26930867
  WF centre and spread    4  ( -0.411410, -0.411753,  0.411997 )     2.26867470
  WF centre and spread    5  ( -0.000049, -0.000021,  0.000009 )     0.55612020
  WF centre and spread    6  (  0.000118, -0.000038,  0.000125 )     0.86842680
  WF centre and spread    7  ( -0.000063,  0.000049, -0.000130 )     0.86843547
  WF centre and spread    8  (  0.000001, -0.000003, -0.000000 )     0.55612000
  WF centre and spread    9  ( -0.000055, -0.000026,  0.000014 )     0.86836026
  Sum of centres and spreads (  0.000569,  0.000249, -0.000060 )    12.79497437

     48    -0.123E-03     0.0065566261       12.7949743666       2.20  <-- CONV
        O_D=      0.0047635 O_OD=      2.2891379 O_TOT=     12.7949744 <-- SPRD
 Delta: O_D=  0.1389684E-04 O_OD= -0.1366977E-03 O_TOT= -0.1228009E-03 <-- DLTA
 ------------------------------------------------------------------------------
 Cycle:     49
  WF centre and spread    1  (  0.411882,  0.412297,  0.411611 )     2.26978321
  WF centre and spread    2  (  0.412208, -0.411667, -0.411768 )     2.26949948
  WF centre and spread    3  ( -0.412065,  0.411410, -0.411918 )     2.26918598
  WF centre and spread    4  ( -0.411408, -0.411752,  0.411996 )     2.26855450
  WF centre and spread    5  ( -0.000049, -0.000021,  0.000009 )     0.55612020
  WF centre and spread    6  (  0.000118, -0.000038,  0.000126 )     0.86855915
  WF centre and spread    7  ( -0.000063,  0.000049, -0.000130 )     0.86856730
  WF centre and spread    8  (  0.000001, -0.000003, -0.000000 )     0.55612003
  WF centre and spread    9  ( -0.000055, -0.000026,  0.000014 )     0.86849248
  Sum of centres and spreads (  0.000569,  0.000249, -0.000060 )    12.79488232

     49    -0.920E-04     0.0079917102       12.7948823214       2.24  <-- CONV
        O_D=      0.0047479 O_OD=      2.2890615 O_TOT=     12.7948823 <-- SPRD
 Delta: O_D= -0.1564242E-04 O_OD= -0.7640278E-04 O_TOT= -0.9204520E-04 <-- DLTA
 ------------------------------------------------------------------------------
 Cycle:     50
  WF centre and spread    1  (  0.411879,  0.412296,  0.411608 )     2.26946362
  WF centre and spread    2  (  0.412206, -0.411664, -0.411765 )     2.26918188
  WF centre and spread    3  ( -0.412064,  0.411406, -0.411916 )     2.26887087
  WF centre and spread    4  ( -0.411404, -0.411749,  0.411995 )     2.26824363
  WF centre and spread    5  ( -0.000049, -0.000021,  0.000009 )     0.55613560
  WF centre and spread    6  (  0.000119, -0.000038,  0.000126 )     0.86894400
  WF centre and spread    7  ( -0.000063,  0.000050, -0.000131 )     0.86895182
  WF centre and spread    8  (  0.000001, -0.000003, -0.000000 )     0.55613546
  WF centre and spread    9  ( -0.000056, -0.000026,  0.000014 )     0.86887722
  Sum of centres and spreads (  0.000569,  0.000249, -0.000060 )    12.79480412

     50    -0.782E-04     0.0051294788       12.7948041169       2.28  <-- CONV
        O_D=      0.0047333 O_OD=      2.2889979 O_TOT=     12.7948041 <-- SPRD
 Delta: O_D= -0.1458187E-04 O_OD= -0.6362256E-04 O_TOT= -0.7820443E-04 <-- DLTA
 ------------------------------------------------------------------------------
 Cycle:     51
  WF centre and spread    1  (  0.411877,  0.412298,  0.411606 )     2.26912981
  WF centre and spread    2  (  0.412207, -0.411663, -0.411764 )     2.26885004
  WF centre and spread    3  ( -0.412065,  0.411403, -0.411916 )     2.26854174
  WF centre and spread    4  ( -0.411402, -0.411750,  0.411996 )     2.26791845
  WF centre and spread    5  ( -0.000049, -0.000022,  0.000009 )     0.55615487
  WF centre and spread    6  (  0.000120, -0.000038,  0.000127 )     0.86935605
  WF centre and spread    7  ( -0.000063,  0.000050, -0.000132 )     0.86936368
  WF centre and spread    8  (  0.000001, -0.000003, -0.000000 )     0.55615477
  WF centre and spread    9  ( -0.000056, -0.000026,  0.000014 )     0.86928912
  Sum of centres and spreads (  0.000569,  0.000250, -0.000060 )    12.79475853

     51    -0.456E-04     0.0043707269       12.7947585338       2.32  <-- CONV
        O_D=      0.0047233 O_OD=      2.2889622 O_TOT=     12.7947585 <-- SPRD
 Delta: O_D= -0.9943983E-05 O_OD= -0.3563912E-04 O_TOT= -0.4558311E-04 <-- DLTA
 ------------------------------------------------------------------------------
 Cycle:     52
  WF centre and spread    1  (  0.411878,  0.412302,  0.411607 )     2.26885472
  WF centre and spread    2  (  0.412210, -0.411665, -0.411766 )     2.26857653
  WF centre and spread    3  ( -0.412069,  0.411403, -0.411918 )     2.26827080
  WF centre and spread    4  ( -0.411402, -0.411752,  0.411999 )     2.26765024
  WF centre and spread    5  ( -0.000049, -0.000022,  0.000009 )     0.55616665
  WF centre and spread    6  (  0.000121, -0.000038,  0.000128 )     0.86970383
  WF centre and spread    7  ( -0.000064,  0.000050, -0.000133 )     0.86971124
  WF centre and spread    8  (  0.000001, -0.000003, -0.000000 )     0.55616662
  WF centre and spread    9  ( -0.000057, -0.000026,  0.000014 )     0.86963670
  Sum of centres and spreads (  0.000570,  0.000250, -0.000060 )    12.79473734

     52    -0.212E-04     0.0030134146       12.7947373404       2.36  <-- CONV
        O_D=      0.0047221 O_OD=      2.2889423 O_TOT=     12.7947373 <-- SPRD
 Delta: O_D= -0.1234185E-05 O_OD= -0.1995924E-04 O_TOT= -0.2119342E-04 <-- DLTA
 ------------------------------------------------------------------------------
 Cycle:     53
  WF centre and spread    1  (  0.411881,  0.412308,  0.411609 )     2.26857952
  WF centre and spread    2  (  0.412214, -0.411668, -0.411769 )     2.26830282
  WF centre and spread    3  ( -0.412074,  0.411404, -0.411923 )     2.26799956
  WF centre and spread    4  ( -0.411404, -0.411756,  0.412004 )     2.26738136
[...]
 |                          plot_wannier:           15.23 Mb                  |
 *----------------------------------------------------------------------------*
  
 Reading restart information from file ex3.chk :
 written on 14Jun2021 at 23:55:25 ... done

 Restarting Wannier90 from plotting routines ...

 *---------------------------------------------------------------------------*
 |                               PLOTTING                                    |
 *---------------------------------------------------------------------------*


 Calculating Fermi surface

 Time to calculate interpolated Fermi surface      10.216 (sec)

 Time for plotting             10.419 (sec)
 Total Execution Time          11.203 (sec)

 *===========================================================================*
 |                             TIMING INFORMATION                            |
 *===========================================================================*
 |    Tag                                                Ncalls      Time (s)|
 |---------------------------------------------------------------------------|
 |kmesh: get                                        :         1         0.729|
 |plot: main                                        :         1        10.419|
 *---------------------------------------------------------------------------*

 All done: wannier90 exiting

             +---------------------------------------------------+
             |                                                   |
             |                   WANNIER90                       |
             |                                                   |
             +---------------------------------------------------+
             |                                                   |
             |        Welcome to the Maximally-Localized         |
             |        Generalized Wannier Functions code         |
             |            http://www.wannier.org                 |
             |                                                   |
             |                                                   |
             |  Wannier90 Developer Group:                       |
             |    Giovanni Pizzi    (EPFL)                       |
             |    Valerio Vitale    (Cambridge)                  |
             |    David Vanderbilt  (Rutgers University)         |
             |    Nicola Marzari    (EPFL)                       |
             |    Ivo Souza         (Universidad del Pais Vasco) |
             |    Arash A. Mostofi  (Imperial College London)    |
             |    Jonathan R. Yates (University of Oxford)       |
             |                                                   |
             |  For the full list of Wannier90 3.x authors,      |
             |  please check the code documentation and the      |
             |  README on the GitHub page of the code            |
             |                                                   |
             |                                                   |
             |  Please cite                                      |
             |                                                   |
             |  [ref] "Wannier90 as a community code:            |
             |        new features and applications",            |
             |        G. Pizzi et al., J. Phys. Cond. Matt. 32,  |
             |        165902 (2020).                             |
             |        http://doi.org/10.1088/1361-648X/ab51ff    |
             |                                                   |
             |  in any publications arising from the use of      |
             |  this code. For the method please cite            |
             |                                                   |
             |  [ref] "Maximally Localized Generalised Wannier   |
             |         Functions for Composite Energy Bands"     |
             |         N. Marzari and D. Vanderbilt              |
             |         Phys. Rev. B 56 12847 (1997)              |
             |                                                   |
             |  [ref] "Maximally Localized Wannier Functions     |
             |         for Entangled Energy Bands"               |
             |         I. Souza, N. Marzari and D. Vanderbilt    |
             |         Phys. Rev. B 65 035109 (2001)             |
             |                                                   |
             |                                                   |
             | Copyright (c) 1996-2020                           |
             |        The Wannier90 Developer Group and          |
             |        individual contributors                    |
             |                                                   |
             |      Release: 3.1.0        5th March    2020      |
             |                                                   |
             | This program is free software; you can            |
             | redistribute it and/or modify it under the terms  |
             | of the GNU General Public License as published by |
             | the Free Software Foundation; either version 2 of |
             | the License, or (at your option) any later version|
             |                                                   |
             | This program is distributed in the hope that it   |
             | will be useful, but WITHOUT ANY WARRANTY; without |
             | even the implied warranty of MERCHANTABILITY or   |
             | FITNESS FOR A PARTICULAR PURPOSE. See the GNU     |
             | General Public License for more details.          |
             |                                                   |
             | You should have received a copy of the GNU General|
             | Public License along with this program; if not,   |
             | write to the Free Software Foundation, Inc.,      |
             | 675 Mass Ave, Cambridge, MA 02139, USA.           |
             |                                                   |
             +---------------------------------------------------+
             |    Execution started on 15Jun2021 at 00:42:11     |
             +---------------------------------------------------+
 
 ******************************************************************************
 * -> Using CODATA 2006 constant values                                       *
 *    (http://physics.nist.gov/cuu/Constants/index.html)                      *
 * -> Using Bohr value from CODATA                                            *
 ******************************************************************************
 

 Running in serial (with serial executable)

                                    ------
                                    SYSTEM
                                    ------

                              Lattice Vectors (Ang)
                    a_1    -2.475359   0.000000   2.475359
                    a_2     0.000000   2.475359   2.475359
                    a_3    -2.475359   2.475359   0.000000

                   Unit Cell Volume:      30.33503  (Ang^3)

                        Reciprocal-Space Vectors (Ang^-1)
                    b_1    -1.269146  -1.269146   1.269146
                    b_2     1.269146   1.269146   1.269146
                    b_3    -1.269146   1.269146  -1.269146
  
 *----------------------------------------------------------------------------*
 |   Site       Fractional Coordinate          Cartesian Coordinate (Ang)     |
 +----------------------------------------------------------------------------+
 | Pb   1   0.00000   0.00000   0.00000   |    0.00000   0.00000   0.00000    |
 *----------------------------------------------------------------------------*
                                ------------
                                K-POINT GRID
                                ------------
  
             Grid size =  8 x  8 x  8      Total points =  512
  
  
 *---------------------------------- MAIN ------------------------------------*
 |  Number of Wannier Functions               :                 9             |
 |  Number of Objective Wannier Functions     :                 9             |
 |  Number of input Bloch states              :                13             |
 |  Output verbosity (1=low, 5=high)          :                 1             |
 |  Timing Level (1=low, 5=high)              :                 1             |
 |  Optimisation (0=memory, 3=speed)          :                 3             |
 |  Length Unit                               :               Ang             |
 |  Post-processing setup (write *.nnkp)      :                 F             |
 |  Using Gamma-only branch of algorithms     :                 F             |
 *----------------------------------------------------------------------------*
 *------------------------------- WANNIERISE ---------------------------------*
 |  Total number of iterations                :               200             |
 |  Number of CG steps before reset           :                 5             |
 |  Trial step length for line search         :             2.000             |
 |  Convergence tolerence                     :         0.100E-09             |
 |  Convergence window                        :                -1             |
 |  Iterations between writing output         :                 1             |
 |  Iterations between backing up to disk     :               100             |
 |  Write r^2_nm to file                      :                 F             |
 |  Write xyz WF centres to file              :                 F             |
 |  Write on-site energies <0n|H|0n> to file  :                 F             |
 |  Use guiding centre to control phases      :                 F             |
 |  Use phases for initial projections        :                 F             |
 *----------------------------------------------------------------------------*
 *------------------------------- DISENTANGLE --------------------------------*
 |  Using band disentanglement                :                 T             |
 |  Total number of iterations                :                50             |
 |  Mixing ratio                              :             1.000             |
 |  Convergence tolerence                     :         1.000E-10             |
 |  Convergence window                        :                 3             |
 *----------------------------------------------------------------------------*
 *-------------------------------- PLOTTING ----------------------------------*
 |  Plotting Fermi surface                    :                 T             |
 |   Number of plotting points (along b_1)    :                50             |
 |   Plotting format                          :          xcrysden             |
 *----------------------------------------------------------------------------*
 |  Plotting interpolated bandstructure       :                 T             |
 |   Number of K-path sections                :                 5             |
 |   Divisions along first K-path section     :               100             |
 |   Output format                            :           gnuplot             |
 |   Output mode                              :               s-k             |
 *----------------------------------------------------------------------------*
 |   K-space path sections:                                                   |
 |    From: G       0.000  0.000  0.000     To: X       0.500  0.500  0.000   |
 |    From: X       0.500  0.500  0.000     To: W       0.500  0.750  0.250   |
 |    From: W       0.500  0.750  0.250     To: L       0.000  0.500  0.000   |
 |    From: L       0.000  0.500  0.000     To: G       0.000  0.000  0.000   |
 |    From: G       0.000  0.000  0.000     To: K       0.000  0.500 -0.500   |
 *----------------------------------------------------------------------------*
 Time to read parameters        0.052 (sec)

 *---------------------------------- K-MESH ----------------------------------*
 +----------------------------------------------------------------------------+
 |                    Distance to Nearest-Neighbour Shells                    |
 |                    ------------------------------------                    |
 |          Shell             Distance (Ang^-1)          Multiplicity         |
 |          -----             -----------------          ------------         |
 |             1                   0.274778                      8            |
 |             2                   0.317287                      6            |
 |             3                   0.448711                     12            |
 |             4                   0.526160                     24            |
 |             5                   0.549557                      8            |
 |             6                   0.634573                      6            |
 |             7                   0.691510                     24            |
 |             8                   0.709474                     24            |
 |             9                   0.777190                     24            |
 |            10                   0.824335                     32            |
 |            11                   0.897422                     12            |
 |            12                   0.938546                     48            |
 |            13                   0.951860                     30            |
 |            14                   1.003348                     24            |
 |            15                   1.040294                     24            |
 |            16                   1.052321                     24            |
 |            17                   1.099113                      8            |
 |            18                   1.132940                     48            |
 |            19                   1.143993                     24            |
 |            20                   1.187178                     48            |
 |            21                   1.218562                     72            |
 |            22                   1.269146                      6            |
 |            23                   1.298551                     24            |
 |            24                   1.308206                     48            |
 |            25                   1.346133                     36            |
 |            26                   1.373891                     56            |
 |            27                   1.383020                     24            |
 |            28                   1.418949                     24            |
 |            29                   1.445309                     72            |
 |            30                   1.453990                     48            |
 |            31                   1.488206                     24            |
 |            32                   1.513361                     48            |
 |            33                   1.554381                     24            |
 |            34                   1.578481                     72            |
 |            35                   1.586433                     30            |
 |            36                   1.617851                     72            |
 +----------------------------------------------------------------------------+
 | The b-vectors are chosen automatically                                     |
 | The following shells are used:   1                                         |
 +----------------------------------------------------------------------------+
 |                        Shell   # Nearest-Neighbours                        |
 |                        -----   --------------------                        |
 |                          1               8                                 |
 +----------------------------------------------------------------------------+
 | Completeness relation is fully satisfied [Eq. (B1), PRB 56, 12847 (1997)]  |
 +----------------------------------------------------------------------------+
 |                  b_k Vectors (Ang^-1) and Weights (Ang^2)                  |
 |                  ----------------------------------------                  |
 |            No.         b_k(x)      b_k(y)      b_k(z)        w_b           |
 |            ---        --------------------------------     --------        |
 |             1        -0.158643    0.158643   -0.158643     4.966684        |
 |             2         0.158643    0.158643    0.158643     4.966684        |
 |             3        -0.158643   -0.158643    0.158643     4.966684        |
 |             4        -0.158643    0.158643    0.158643     4.966684        |
 |             5         0.158643   -0.158643    0.158643     4.966684        |
 |             6        -0.158643   -0.158643   -0.158643     4.966684        |
 |             7         0.158643    0.158643   -0.158643     4.966684        |
 |             8         0.158643   -0.158643   -0.158643     4.966684        |
 +----------------------------------------------------------------------------+
 |                           b_k Directions (Ang^-1)                          |
 |                           -----------------------                          |
 |            No.           x           y           z                         |
 |            ---        --------------------------------                     |
 |             1        -0.158643    0.158643   -0.158643                     |
 |             2         0.158643    0.158643    0.158643                     |
 |             3        -0.158643   -0.158643    0.158643                     |
 |             4        -0.158643    0.158643    0.158643                     |
 +----------------------------------------------------------------------------+
  
 Time to get kmesh              0.730 (sec)
 *============================================================================*
 |                              MEMORY ESTIMATE                               |
 |         Maximum RAM allocated during each phase of the calculation         |
 *============================================================================*
 |                        Disentanglement           18.45 Mb                  |
 |                            Wannierise:           15.23 Mb                  |
 |                          plot_wannier:           15.23 Mb                  |
 *----------------------------------------------------------------------------*
  
 Reading restart information from file ex3.chk :
 written on 14Jun2021 at 23:55:25 ... done

 Restarting Wannier90 from plotting routines ...

 *---------------------------------------------------------------------------*
 |                               PLOTTING                                    |
 *---------------------------------------------------------------------------*


 Calculating interpolated band-structure

 Time to calculate interpolated band structure       0.798 (sec)


 Calculating Fermi surface

 Time to calculate interpolated Fermi surface      10.097 (sec)

 Time for plotting             11.095 (sec)
 Total Execution Time          11.880 (sec)

 *===========================================================================*
 |                             TIMING INFORMATION                            |
 *===========================================================================*
 |    Tag                                                Ncalls      Time (s)|
 |---------------------------------------------------------------------------|
 |kmesh: get                                        :         1         0.730|
 |plot: main                                        :         1        11.095|
 *---------------------------------------------------------------------------*

 All done: wannier90 exiting
