
     Program PHONON v.6.7MaX starts on 15Jun2021 at 21:51:38 

     This program is part of the open-source Quantum ESPRESSO suite
     for quantum simulation of materials; please cite
         "P. Giannozzi et al., J. Phys.:Condens. Matter 21 395502 (2009);
         "P. Giannozzi et al., J. Phys.:Condens. Matter 29 465901 (2017);
          URL http://www.quantum-espresso.org", 
     in publications or presentations arising from this work. More details at
     http://www.quantum-espresso.org/quote

     Parallel version (MPI & OpenMP), running on       4 processor cores
     Number of MPI processes:                 4
     Threads/MPI process:                     1

     MPI processes distributed on     1 nodes
     K-points division:     npool     =       4
     Reading input from sic.ephline.in


     Dynamical matrices for q-points given in input
     (  41q-points):
       N         xq(1)         xq(2)         xq(3) 
       1   1.000000000   0.000000000   0.000000000
       2   0.950000000   0.000000000   0.000000000
       3   0.900000000   0.000000000   0.000000000
       4   0.850000000   0.000000000   0.000000000
       5   0.800000000   0.000000000   0.000000000
       6   0.750000000   0.000000000   0.000000000
       7   0.700000000   0.000000000   0.000000000
       8   0.650000000   0.000000000   0.000000000
       9   0.600000000   0.000000000   0.000000000
      10   0.550000000   0.000000000   0.000000000
      11   0.500000000   0.000000000   0.000000000
      12   0.450000000   0.000000000   0.000000000
      13   0.400000000   0.000000000   0.000000000
      14   0.350000000   0.000000000   0.000000000
      15   0.300000000   0.000000000   0.000000000
      16   0.250000000   0.000000000   0.000000000
      17   0.200000000   0.000000000   0.000000000
      18   0.150000000   0.000000000   0.000000000
      19   0.100000000   0.000000000   0.000000000
      20   0.050000000   0.000000000   0.000000000
      21   0.000000000   0.000000000   0.000000000
      22  -0.025000000   0.025000000   0.025000000
      23  -0.050000000   0.050000000   0.050000000
      24  -0.075000000   0.075000000   0.075000000
      25  -0.100000000   0.100000000   0.100000000
      26  -0.125000000   0.125000000   0.125000000
      27  -0.150000000   0.150000000   0.150000000
      28  -0.175000000   0.175000000   0.175000000
      29  -0.200000000   0.200000000   0.200000000
      30  -0.225000000   0.225000000   0.225000000
      31  -0.250000000   0.250000000   0.250000000
      32  -0.275000000   0.275000000   0.275000000
      33  -0.300000000   0.300000000   0.300000000
      34  -0.325000000   0.325000000   0.325000000
      35  -0.350000000   0.350000000   0.350000000
      36  -0.375000000   0.375000000   0.375000000
      37  -0.400000000   0.400000000   0.400000000
      38  -0.425000000   0.425000000   0.425000000
      39  -0.450000000   0.450000000   0.450000000
      40  -0.475000000   0.475000000   0.475000000
      41  -0.500000000   0.500000000   0.500000000

     Reading xml data from directory:

     ./sic.save/
     file C.UPF: wavefunction(s)  3d renormalized

     IMPORTANT: XC functional enforced from input :
     Exchange-correlation= PZ
                           (   1   1   0   0   0   0   0)
     Any further DFT definition will be discarded
     Please, verify this is what you really want


     G-vector sticks info
     --------------------
     sticks:   dense  smooth     PW     G-vecs:    dense   smooth      PW
     Sum         283     283     91                 3119     3119     609

     Reading collected, re-writing distributed wavefunctions

     Saving dvscf to file. Distribute only q points, not irreducible represetations.

     Calculation of q =    1.0000000   0.0000000   0.0000000

     Subspace diagonalization in iterative solution of the eigenvalue problem:
     a serial algorithm will be used


     G-vector sticks info
     --------------------
     sticks:   dense  smooth     PW     G-vecs:    dense   smooth      PW
     Sum         283     283    121                 3119     3119     869


     Title: 
     ---                                                                        


     bravais-lattice index     =            2
     lattice parameter (alat)  =       8.2370  a.u.
     unit-cell volume          =     139.7163 (a.u.)^3
     number of atoms/cell      =            2
     number of atomic types    =            2
     number of electrons       =         8.00
     number of Kohn-Sham states=            4
     kinetic-energy cutoff     =      30.0000  Ry
     charge density cutoff     =     120.0000  Ry
     Exchange-correlation= PZ
                           (   1   1   0   0   0   0   0)

     celldm(1)=   8.237000  celldm(2)=   0.000000  celldm(3)=   0.000000
     celldm(4)=   0.000000  celldm(5)=   0.000000  celldm(6)=   0.000000

     crystal axes: (cart. coord. in units of alat)
               a(1) = (  -0.500000   0.000000   0.500000 )  
               a(2) = (   0.000000   0.500000   0.500000 )  
               a(3) = (  -0.500000   0.500000   0.000000 )  

     reciprocal axes: (cart. coord. in units 2 pi/alat)
               b(1) = ( -1.000000 -1.000000  1.000000 )  
               b(2) = (  1.000000  1.000000  1.000000 )  
               b(3) = ( -1.000000  1.000000 -1.000000 )  


     PseudoPot. # 1 for Si read from file:
     ../Si.pz-vbc.UPF
     MD5 check sum: 6dfa03ddd5817404712e03e4d12deb78
     Pseudo is Norm-conserving, Zval =  4.0
     Generated by new atomic code, or converted to UPF format
     Using radial grid of  431 points,  2 beta functions with: 
                l(1) =   0
                l(2) =   1

     PseudoPot. # 2 for C  read from file:
     ../C.UPF
     MD5 check sum: 4781e8ce5ee01a432381f51d0ea25c53
     Pseudo is Norm-conserving, Zval =  4.0
     Generated by new atomic code, or converted to UPF format
     Using radial grid of  461 points,  2 beta functions with: 
                l(1) =   0
                l(2) =   1

     atomic species   valence    mass     pseudopotential
        Si             4.00    28.08550     Si( 1.00)
        C              4.00    12.01078     C ( 1.00)

     24 Sym. Ops. (no inversion) found



   Cartesian axes

     site n.     atom                  positions (alat units)
         1           Si  tau(   1) = (   0.0000000   0.0000000   0.0000000  )
         2           C   tau(   2) = (   0.2500000   0.2500000   0.2500000  )

     number of k points=   118

     Number of k-points >= 100: set verbosity='high' to print them.

     Dense  grid:     3119 G-vectors     FFT dimensions: (  24,  24,  24)

     Estimated max dynamical RAM per process >       1.86 MB

     Estimated total dynamical RAM >       7.45 MB

     The potential is recalculated from file :
     ./_ph0/sic.q_1/sic.save/charge-density

     Starting wfcs are   13 atomic wfcs

     Band Structure Calculation
     Davidson diagonalization with overlap

     ethr =  1.25E-10,  avg # of iterations = 10.3

     total cpu time spent up to now is        0.4 secs

     End of band structure calculation

     Number of k-points >= 100: set verbosity='high' to print the bands.

     highest occupied level (ev):     9.3594

     Writing output data file ./_ph0/sic.q_1/sic.save/

     ---                                                                        

     bravais-lattice index     =            2
     lattice parameter (alat)  =       8.2370  a.u.
     unit-cell volume          =     139.7163 (a.u.)^3
     number of atoms/cell      =            2
     number of atomic types    =            2
     kinetic-energy cut-off    =      30.0000  Ry
     charge density cut-off    =     120.0000  Ry
     convergence threshold     =      1.0E-12
     beta                      =       0.7000
     number of iterations used =            4
     Exchange-correlation= PZ
                           (   1   1   0   0   0   0   0)


     celldm(1)=    8.23700  celldm(2)=    0.00000  celldm(3)=    0.00000
     celldm(4)=    0.00000  celldm(5)=    0.00000  celldm(6)=    0.00000

     crystal axes: (cart. coord. in units of alat)
               a(1) = ( -0.5000  0.0000  0.5000 )  
               a(2) = (  0.0000  0.5000  0.5000 )  
               a(3) = ( -0.5000  0.5000  0.0000 )  

     reciprocal axes: (cart. coord. in units 2 pi/alat)
               b(1) = ( -1.0000 -1.0000  1.0000 )  
               b(2) = (  1.0000  1.0000  1.0000 )  
               b(3) = ( -1.0000  1.0000 -1.0000 )  


     Atoms inside the unit cell: 

     Cartesian axes

     site n.  atom      mass           positions (alat units)
        1     Si  28.0855   tau(    1) = (    0.00000    0.00000    0.00000  )
        2     C   12.0108   tau(    2) = (    0.25000    0.25000    0.25000  )

     Computing dynamical matrix for 
                    q = (   1.0000000   0.0000000   0.0000000 )

      9 Sym.Ops. (with q -> -q+G )


     G cutoff =  206.2337  (   3119 G-vectors)     FFT grid: ( 24, 24, 24)
     number of k points=   118

     PseudoPot. # 1 for Si read from file:
     ../Si.pz-vbc.UPF
     MD5 check sum: 6dfa03ddd5817404712e03e4d12deb78
     Pseudo is Norm-conserving, Zval =  4.0
     Generated by new atomic code, or converted to UPF format
     Using radial grid of  431 points,  2 beta functions with: 
                l(1) =   0
                l(2) =   1

     PseudoPot. # 2 for C  read from file:
     ../C.UPF
     MD5 check sum: 4781e8ce5ee01a432381f51d0ea25c53
     Pseudo is Norm-conserving, Zval =  4.0
     Generated by new atomic code, or converted to UPF format
     Using radial grid of  461 points,  2 beta functions with: 
                l(1) =   0
                l(2) =   1

     Mode symmetry, D_2d (-42m) point group:


     Atomic displacements:
     There are    4 irreducible representations

     Representation     1      1 modes -  To be done

     Representation     2      1 modes -  To be done

     Representation     3      2 modes -  To be done

     Representation     4      2 modes -  To be done



     Alpha used in Ewald sum =   1.3000
     PHONON       :      0.60s CPU      0.64s WALL



     Representation #   1 mode #   1

     Self-consistent Calculation

      iter #   1 total cpu time :     0.8 secs   av.it.:   6.3
      thresh= 1.000E-02 alpha_mix =  0.700 |ddv_scf|^2 =  1.341E-04

      iter #   2 total cpu time :     0.9 secs   av.it.:   8.4
      thresh= 1.158E-03 alpha_mix =  0.700 |ddv_scf|^2 =  1.011E-04

      iter #   3 total cpu time :     1.1 secs   av.it.:   7.8
      thresh= 1.006E-03 alpha_mix =  0.700 |ddv_scf|^2 =  3.905E-09

      iter #   4 total cpu time :     1.3 secs   av.it.:   8.2
      thresh= 6.249E-06 alpha_mix =  0.700 |ddv_scf|^2 =  1.349E-10

      iter #   5 total cpu time :     1.5 secs   av.it.:   8.2
      thresh= 1.162E-06 alpha_mix =  0.700 |ddv_scf|^2 =  3.409E-12

      iter #   6 total cpu time :     1.6 secs   av.it.:   7.6
      thresh= 1.846E-07 alpha_mix =  0.700 |ddv_scf|^2 =  3.557E-15

     End of self-consistent calculation

     Convergence has been achieved 


     Representation #   2 mode #   2

     Self-consistent Calculation

      iter #   1 total cpu time :     1.8 secs   av.it.:   5.8
      thresh= 1.000E-02 alpha_mix =  0.700 |ddv_scf|^2 =  3.966E-05

      iter #   2 total cpu time :     1.9 secs   av.it.:   8.5
      thresh= 6.297E-04 alpha_mix =  0.700 |ddv_scf|^2 =  4.318E-05

      iter #   3 total cpu time :     2.1 secs   av.it.:   7.9
      thresh= 6.571E-04 alpha_mix =  0.700 |ddv_scf|^2 =  2.485E-07

      iter #   4 total cpu time :     2.2 secs   av.it.:   7.8
      thresh= 4.985E-05 alpha_mix =  0.700 |ddv_scf|^2 =  4.072E-10

      iter #   5 total cpu time :     2.4 secs   av.it.:   7.9
      thresh= 2.018E-06 alpha_mix =  0.700 |ddv_scf|^2 =  2.481E-12

      iter #   6 total cpu time :     2.5 secs   av.it.:   7.5
      thresh= 1.575E-07 alpha_mix =  0.700 |ddv_scf|^2 =  2.283E-13

     End of self-consistent calculation

     Convergence has been achieved 


     Representation #   3 modes #   3   4

     Self-consistent Calculation

      iter #   1 total cpu time :     2.7 secs   av.it.:   5.2
      thresh= 1.000E-02 alpha_mix =  0.700 |ddv_scf|^2 =  6.996E-07

      iter #   2 total cpu time :     3.0 secs   av.it.:   9.4
      thresh= 8.364E-05 alpha_mix =  0.700 |ddv_scf|^2 =  5.465E-08

      iter #   3 total cpu time :     3.3 secs   av.it.:   9.1
      thresh= 2.338E-05 alpha_mix =  0.700 |ddv_scf|^2 =  1.654E-10

      iter #   4 total cpu time :     3.6 secs   av.it.:   8.8
      thresh= 1.286E-06 alpha_mix =  0.700 |ddv_scf|^2 =  4.048E-13

     End of self-consistent calculation

     Convergence has been achieved 


     Representation #   4 modes #   5   6

     Self-consistent Calculation

      iter #   1 total cpu time :     3.9 secs   av.it.:   6.2
      thresh= 1.000E-02 alpha_mix =  0.700 |ddv_scf|^2 =  4.551E-06

      iter #   2 total cpu time :     4.2 secs   av.it.:   9.5
      thresh= 2.133E-04 alpha_mix =  0.700 |ddv_scf|^2 =  3.884E-07

      iter #   3 total cpu time :     4.5 secs   av.it.:   9.2
      thresh= 6.232E-05 alpha_mix =  0.700 |ddv_scf|^2 =  1.306E-10

      iter #   4 total cpu time :     4.8 secs   av.it.:   9.4
      thresh= 1.143E-06 alpha_mix =  0.700 |ddv_scf|^2 =  3.475E-12

      iter #   5 total cpu time :     5.1 secs   av.it.:   8.7
      thresh= 1.864E-07 alpha_mix =  0.700 |ddv_scf|^2 =  3.430E-15

     End of self-consistent calculation

     Convergence has been achieved 

     Number of q in the star =    3
     List of q in the star:
          1   1.000000000   0.000000000   0.000000000
          2   0.000000000   1.000000000   0.000000000
          3   0.000000000   0.000000000  -1.000000000

     Diagonalizing the dynamical matrix

     q = (    1.000000000   0.000000000   0.000000000 ) 

 **************************************************************************
     freq (    1) =      10.640743 [THz] =     354.936969 [cm-1]
     freq (    2) =      10.640743 [THz] =     354.936969 [cm-1]
     freq (    3) =      18.728772 [THz] =     624.724580 [cm-1]
     freq (    4) =      21.869034 [THz] =     729.472441 [cm-1]
     freq (    5) =      21.869034 [THz] =     729.472441 [cm-1]
     freq (    6) =      23.283467 [THz] =     776.652853 [cm-1]
 **************************************************************************

     Mode symmetry, D_2d (-42m) point group:

     freq (   1-   2) =        354.9  [cm-1]   --> E    X_5  W_3      
     freq (   3-   3) =        624.7  [cm-1]   --> B_2  X_3  W_2      
     freq (   4-   5) =        729.5  [cm-1]   --> E    X_5  W_3      
     freq (   6-   6) =        776.7  [cm-1]   --> A_1  X_1  W_1      

     Calculation of q =    0.9500000   0.0000000   0.0000000

     G-vector sticks info
     --------------------
     sticks:   dense  smooth     PW     G-vecs:    dense   smooth      PW
     Sum         283     283    121                 3119     3119     869


     Title: 
     ---                                                                        


     bravais-lattice index     =            2
     lattice parameter (alat)  =       8.2370  a.u.
     unit-cell volume          =     139.7163 (a.u.)^3
     number of atoms/cell      =            2
     number of atomic types    =            2
     number of electrons       =         8.00
     number of Kohn-Sham states=            4
     kinetic-energy cutoff     =      30.0000  Ry
     charge density cutoff     =     120.0000  Ry
     Exchange-correlation= PZ
                           (   1   1   0   0   0   0   0)

     celldm(1)=   8.237000  celldm(2)=   0.000000  celldm(3)=   0.000000
     celldm(4)=   0.000000  celldm(5)=   0.000000  celldm(6)=   0.000000

     crystal axes: (cart. coord. in units of alat)
               a(1) = (  -0.500000   0.000000   0.500000 )  
               a(2) = (   0.000000   0.500000   0.500000 )  
               a(3) = (  -0.500000   0.500000   0.000000 )  

     reciprocal axes: (cart. coord. in units 2 pi/alat)
               b(1) = ( -1.000000 -1.000000  1.000000 )  
               b(2) = (  1.000000  1.000000  1.000000 )  
               b(3) = ( -1.000000  1.000000 -1.000000 )  


     PseudoPot. # 1 for Si read from file:
     ../Si.pz-vbc.UPF
     MD5 check sum: 6dfa03ddd5817404712e03e4d12deb78
     Pseudo is Norm-conserving, Zval =  4.0
     Generated by new atomic code, or converted to UPF format
     Using radial grid of  431 points,  2 beta functions with: 
                l(1) =   0
                l(2) =   1

     PseudoPot. # 2 for C  read from file:
     ../C.UPF
     MD5 check sum: 4781e8ce5ee01a432381f51d0ea25c53
     Pseudo is Norm-conserving, Zval =  4.0
     Generated by new atomic code, or converted to UPF format
     Using radial grid of  461 points,  2 beta functions with: 
                l(1) =   0
                l(2) =   1

     atomic species   valence    mass     pseudopotential
        Si             4.00    28.08550     Si( 1.00)
        C              4.00    12.01078     C ( 1.00)

     24 Sym. Ops. (no inversion) found



   Cartesian axes

     site n.     atom                  positions (alat units)
         1           Si  tau(   1) = (   0.0000000   0.0000000   0.0000000  )
         2           C   tau(   2) = (   0.2500000   0.2500000   0.2500000  )

     number of k points=   328

     Number of k-points >= 100: set verbosity='high' to print them.

     Dense  grid:     3119 G-vectors     FFT dimensions: (  24,  24,  24)

     Estimated max dynamical RAM per process >       1.86 MB

     Estimated total dynamical RAM >       7.45 MB

     The potential is recalculated from file :
     ./_ph0/sic.q_2/sic.save/charge-density

     Starting wfcs are   13 atomic wfcs

     Band Structure Calculation
     Davidson diagonalization with overlap

     ethr =  1.25E-10,  avg # of iterations = 10.5

     total cpu time spent up to now is        1.5 secs

     End of band structure calculation

     Number of k-points >= 100: set verbosity='high' to print the bands.

     highest occupied level (ev):     9.3594

     Writing output data file ./_ph0/sic.q_2/sic.save/

     ---                                                                        

     bravais-lattice index     =            2
     lattice parameter (alat)  =       8.2370  a.u.
     unit-cell volume          =     139.7163 (a.u.)^3
     number of atoms/cell      =            2
     number of atomic types    =            2
     kinetic-energy cut-off    =      30.0000  Ry
     charge density cut-off    =     120.0000  Ry
     convergence threshold     =      1.0E-12
     beta                      =       0.7000
     number of iterations used =            4
     Exchange-correlation= PZ
                           (   1   1   0   0   0   0   0)


     celldm(1)=    8.23700  celldm(2)=    0.00000  celldm(3)=    0.00000
     celldm(4)=    0.00000  celldm(5)=    0.00000  celldm(6)=    0.00000

     crystal axes: (cart. coord. in units of alat)
               a(1) = ( -0.5000  0.0000  0.5000 )  
               a(2) = (  0.0000  0.5000  0.5000 )  
               a(3) = ( -0.5000  0.5000  0.0000 )  

     reciprocal axes: (cart. coord. in units 2 pi/alat)
               b(1) = ( -1.0000 -1.0000  1.0000 )  
               b(2) = (  1.0000  1.0000  1.0000 )  
               b(3) = ( -1.0000  1.0000 -1.0000 )  


     Atoms inside the unit cell: 

     Cartesian axes

     site n.  atom      mass           positions (alat units)
        1     Si  28.0855   tau(    1) = (    0.00000    0.00000    0.00000  )
        2     C   12.0108   tau(    2) = (    0.25000    0.25000    0.25000  )

     Computing dynamical matrix for 
                    q = (   0.9500000   0.0000000   0.0000000 )

      4 Sym.Ops. (no q -> -q+G )


     G cutoff =  206.2337  (   3119 G-vectors)     FFT grid: ( 24, 24, 24)
     number of k points=   328

     PseudoPot. # 1 for Si read from file:
     ../Si.pz-vbc.UPF
     MD5 check sum: 6dfa03ddd5817404712e03e4d12deb78
     Pseudo is Norm-conserving, Zval =  4.0
     Generated by new atomic code, or converted to UPF format
     Using radial grid of  431 points,  2 beta functions with: 
                l(1) =   0
                l(2) =   1

     PseudoPot. # 2 for C  read from file:
     ../C.UPF
     MD5 check sum: 4781e8ce5ee01a432381f51d0ea25c53
     Pseudo is Norm-conserving, Zval =  4.0
     Generated by new atomic code, or converted to UPF format
     Using radial grid of  461 points,  2 beta functions with: 
                l(1) =   0
                l(2) =   1

     Mode symmetry, C_2v (mm2)  point group:


     Atomic displacements:
     There are    6 irreducible representations

     Representation     1      1 modes -  To be done

     Representation     2      1 modes -  To be done

     Representation     3      1 modes -  To be done

     Representation     4      1 modes -  To be done

     Representation     5      1 modes -  To be done

     Representation     6      1 modes -  To be done



     Alpha used in Ewald sum =   1.3000
     PHONON       :      5.92s CPU      6.28s WALL



     Representation #   1 mode #   1

     Self-consistent Calculation

      iter #   1 total cpu time :     6.6 secs   av.it.:   6.4
      thresh= 1.000E-02 alpha_mix =  0.700 |ddv_scf|^2 =  1.393E-04

      iter #   2 total cpu time :     7.0 secs   av.it.:   8.6
      thresh= 1.180E-03 alpha_mix =  0.700 |ddv_scf|^2 =  1.126E-04

      iter #   3 total cpu time :     7.3 secs   av.it.:   7.9
      thresh= 1.061E-03 alpha_mix =  0.700 |ddv_scf|^2 =  3.295E-07

      iter #   4 total cpu time :     7.7 secs   av.it.:   8.3
      thresh= 5.740E-05 alpha_mix =  0.700 |ddv_scf|^2 =  1.684E-08

      iter #   5 total cpu time :     8.1 secs   av.it.:   8.2
      thresh= 1.298E-05 alpha_mix =  0.700 |ddv_scf|^2 =  6.704E-11

      iter #   6 total cpu time :     8.5 secs   av.it.:   8.6
      thresh= 8.188E-07 alpha_mix =  0.700 |ddv_scf|^2 =  2.015E-12

      iter #   7 total cpu time :     8.9 secs   av.it.:   8.4
      thresh= 1.420E-07 alpha_mix =  0.700 |ddv_scf|^2 =  1.433E-13

     End of self-consistent calculation

     Convergence has been achieved 


     Representation #   2 mode #   2

     Self-consistent Calculation

      iter #   1 total cpu time :     9.2 secs   av.it.:   5.9
      thresh= 1.000E-02 alpha_mix =  0.700 |ddv_scf|^2 =  4.202E-05

      iter #   2 total cpu time :     9.7 secs   av.it.:   8.7
      thresh= 6.482E-04 alpha_mix =  0.700 |ddv_scf|^2 =  4.803E-05

      iter #   3 total cpu time :    10.0 secs   av.it.:   8.1
      thresh= 6.931E-04 alpha_mix =  0.700 |ddv_scf|^2 =  2.511E-07

      iter #   4 total cpu time :    10.4 secs   av.it.:   8.1
      thresh= 5.011E-05 alpha_mix =  0.700 |ddv_scf|^2 =  1.202E-09

      iter #   5 total cpu time :    10.8 secs   av.it.:   8.3
      thresh= 3.467E-06 alpha_mix =  0.700 |ddv_scf|^2 =  2.181E-10

      iter #   6 total cpu time :    11.2 secs   av.it.:   8.2
      thresh= 1.477E-06 alpha_mix =  0.700 |ddv_scf|^2 =  7.581E-13

     End of self-consistent calculation

     Convergence has been achieved 


     Representation #   3 mode #   3

     Self-consistent Calculation

      iter #   1 total cpu time :    11.5 secs   av.it.:   5.3
      thresh= 1.000E-02 alpha_mix =  0.700 |ddv_scf|^2 =  2.776E-06

      iter #   2 total cpu time :    11.9 secs   av.it.:   8.6
      thresh= 1.666E-04 alpha_mix =  0.700 |ddv_scf|^2 =  2.152E-07

      iter #   3 total cpu time :    12.3 secs   av.it.:   8.4
      thresh= 4.639E-05 alpha_mix =  0.700 |ddv_scf|^2 =  6.603E-10

      iter #   4 total cpu time :    12.8 secs   av.it.:   8.0
      thresh= 2.570E-06 alpha_mix =  0.700 |ddv_scf|^2 =  1.679E-12

      iter #   5 total cpu time :    13.3 secs   av.it.:   8.5
      thresh= 1.296E-07 alpha_mix =  0.700 |ddv_scf|^2 =  8.143E-15

     End of self-consistent calculation

     Convergence has been achieved 


     Representation #   4 mode #   4

     Self-consistent Calculation

      iter #   1 total cpu time :    13.6 secs   av.it.:   6.1
      thresh= 1.000E-02 alpha_mix =  0.700 |ddv_scf|^2 =  1.811E-05

      iter #   2 total cpu time :    14.0 secs   av.it.:   8.6
      thresh= 4.256E-04 alpha_mix =  0.700 |ddv_scf|^2 =  1.534E-06

      iter #   3 total cpu time :    14.4 secs   av.it.:   8.4
      thresh= 1.239E-04 alpha_mix =  0.700 |ddv_scf|^2 =  5.184E-10

      iter #   4 total cpu time :    14.8 secs   av.it.:   8.6
      thresh= 2.277E-06 alpha_mix =  0.700 |ddv_scf|^2 =  1.395E-11

      iter #   5 total cpu time :    15.2 secs   av.it.:   7.8
      thresh= 3.735E-07 alpha_mix =  0.700 |ddv_scf|^2 =  1.378E-14

     End of self-consistent calculation

     Convergence has been achieved 


     Representation #   5 mode #   5

     Self-consistent Calculation

      iter #   1 total cpu time :    15.5 secs   av.it.:   6.1
      thresh= 1.000E-02 alpha_mix =  0.700 |ddv_scf|^2 =  1.811E-05

      iter #   2 total cpu time :    15.9 secs   av.it.:   8.6
      thresh= 4.256E-04 alpha_mix =  0.700 |ddv_scf|^2 =  1.534E-06

      iter #   3 total cpu time :    16.3 secs   av.it.:   8.4
      thresh= 1.239E-04 alpha_mix =  0.700 |ddv_scf|^2 =  5.183E-10

      iter #   4 total cpu time :    16.7 secs   av.it.:   8.6
      thresh= 2.277E-06 alpha_mix =  0.700 |ddv_scf|^2 =  1.395E-11

      iter #   5 total cpu time :    17.1 secs   av.it.:   7.9
      thresh= 3.735E-07 alpha_mix =  0.700 |ddv_scf|^2 =  1.379E-14

     End of self-consistent calculation

     Convergence has been achieved 


     Representation #   6 mode #   6

     Self-consistent Calculation

      iter #   1 total cpu time :    17.4 secs   av.it.:   5.3
      thresh= 1.000E-02 alpha_mix =  0.700 |ddv_scf|^2 =  2.776E-06

      iter #   2 total cpu time :    17.8 secs   av.it.:   8.6
      thresh= 1.666E-04 alpha_mix =  0.700 |ddv_scf|^2 =  2.152E-07

      iter #   3 total cpu time :    18.2 secs   av.it.:   8.4
      thresh= 4.639E-05 alpha_mix =  0.700 |ddv_scf|^2 =  6.604E-10

      iter #   4 total cpu time :    18.6 secs   av.it.:   8.0
      thresh= 2.570E-06 alpha_mix =  0.700 |ddv_scf|^2 =  1.682E-12

      iter #   5 total cpu time :    19.0 secs   av.it.:   8.5
      thresh= 1.297E-07 alpha_mix =  0.700 |ddv_scf|^2 =  8.136E-15

     End of self-consistent calculation

     Convergence has been achieved 

     Number of q in the star =    6
     List of q in the star:
          1   0.950000000   0.000000000   0.000000000
          2  -0.950000000   0.000000000   0.000000000
          3   0.000000000   0.950000000   0.000000000
          4   0.000000000  -0.950000000   0.000000000
          5   0.000000000   0.000000000  -0.950000000
          6   0.000000000   0.000000000   0.950000000

     Diagonalizing the dynamical matrix

     q = (    0.950000000   0.000000000   0.000000000 ) 

 **************************************************************************
     freq (    1) =      10.660981 [THz] =     355.612060 [cm-1]
     freq (    2) =      10.660981 [THz] =     355.612060 [cm-1]
     freq (    3) =      18.604615 [THz] =     620.583148 [cm-1]
     freq (    4) =      21.984885 [THz] =     733.336837 [cm-1]
     freq (    5) =      21.984885 [THz] =     733.336837 [cm-1]
     freq (    6) =      23.515533 [THz] =     784.393745 [cm-1]
 **************************************************************************

     Mode symmetry, C_2v (mm2)  point group:

     freq (   1-   1) =        355.6  [cm-1]   --> B_1  D_3  S_3      
     freq (   2-   2) =        355.6  [cm-1]   --> B_2  D_4  S_4      
     freq (   3-   3) =        620.6  [cm-1]   --> A_1  D_1  S_1      
     freq (   4-   4) =        733.3  [cm-1]   --> B_1  D_3  S_3      
     freq (   5-   5) =        733.3  [cm-1]   --> B_2  D_4  S_4      
     freq (   6-   6) =        784.4  [cm-1]   --> A_1  D_1  S_1      

     Calculation of q =    0.9000000   0.0000000   0.0000000

     G-vector sticks info
     --------------------
     sticks:   dense  smooth     PW     G-vecs:    dense   smooth      PW
     Sum         283     283    121                 3119     3119     869


     Title: 
     ---                                                                        


     bravais-lattice index     =            2
     lattice parameter (alat)  =       8.2370  a.u.
     unit-cell volume          =     139.7163 (a.u.)^3
     number of atoms/cell      =            2
     number of atomic types    =            2
     number of electrons       =         8.00
     number of Kohn-Sham states=            4
     kinetic-energy cutoff     =      30.0000  Ry
     charge density cutoff     =     120.0000  Ry
     Exchange-correlation= PZ
                           (   1   1   0   0   0   0   0)

     celldm(1)=   8.237000  celldm(2)=   0.000000  celldm(3)=   0.000000
     celldm(4)=   0.000000  celldm(5)=   0.000000  celldm(6)=   0.000000

     crystal axes: (cart. coord. in units of alat)
               a(1) = (  -0.500000   0.000000   0.500000 )  
               a(2) = (   0.000000   0.500000   0.500000 )  
               a(3) = (  -0.500000   0.500000   0.000000 )  

     reciprocal axes: (cart. coord. in units 2 pi/alat)
               b(1) = ( -1.000000 -1.000000  1.000000 )  
               b(2) = (  1.000000  1.000000  1.000000 )  
               b(3) = ( -1.000000  1.000000 -1.000000 )  


     PseudoPot. # 1 for Si read from file:
     ../Si.pz-vbc.UPF
     MD5 check sum: 6dfa03ddd5817404712e03e4d12deb78
     Pseudo is Norm-conserving, Zval =  4.0
     Generated by new atomic code, or converted to UPF format
     Using radial grid of  431 points,  2 beta functions with: 
                l(1) =   0
                l(2) =   1

     PseudoPot. # 2 for C  read from file:
     ../C.UPF
     MD5 check sum: 4781e8ce5ee01a432381f51d0ea25c53
     Pseudo is Norm-conserving, Zval =  4.0
     Generated by new atomic code, or converted to UPF format
     Using radial grid of  461 points,  2 beta functions with: 
                l(1) =   0
                l(2) =   1

     atomic species   valence    mass     pseudopotential
        Si             4.00    28.08550     Si( 1.00)
        C              4.00    12.01078     C ( 1.00)

     24 Sym. Ops. (no inversion) found



   Cartesian axes

     site n.     atom                  positions (alat units)
         1           Si  tau(   1) = (   0.0000000   0.0000000   0.0000000  )
         2           C   tau(   2) = (   0.2500000   0.2500000   0.2500000  )

     number of k points=   328

     Number of k-points >= 100: set verbosity='high' to print them.

     Dense  grid:     3119 G-vectors     FFT dimensions: (  24,  24,  24)

     Estimated max dynamical RAM per process >       1.86 MB

     Estimated total dynamical RAM >       7.44 MB

     The potential is recalculated from file :
     ./_ph0/sic.q_3/sic.save/charge-density

     Starting wfcs are   13 atomic wfcs

     Band Structure Calculation
     Davidson diagonalization with overlap

     ethr =  1.25E-10,  avg # of iterations = 10.5

     total cpu time spent up to now is        2.8 secs

     End of band structure calculation

     Number of k-points >= 100: set verbosity='high' to print the bands.

     highest occupied level (ev):     9.3594

     Writing output data file ./_ph0/sic.q_3/sic.save/

     ---                                                                        

     bravais-lattice index     =            2
     lattice parameter (alat)  =       8.2370  a.u.
     unit-cell volume          =     139.7163 (a.u.)^3
     number of atoms/cell      =            2
     number of atomic types    =            2
     kinetic-energy cut-off    =      30.0000  Ry
     charge density cut-off    =     120.0000  Ry
     convergence threshold     =      1.0E-12
     beta                      =       0.7000
     number of iterations used =            4
     Exchange-correlation= PZ
                           (   1   1   0   0   0   0   0)


     celldm(1)=    8.23700  celldm(2)=    0.00000  celldm(3)=    0.00000
     celldm(4)=    0.00000  celldm(5)=    0.00000  celldm(6)=    0.00000

     crystal axes: (cart. coord. in units of alat)
               a(1) = ( -0.5000  0.0000  0.5000 )  
               a(2) = (  0.0000  0.5000  0.5000 )  
               a(3) = ( -0.5000  0.5000  0.0000 )  

     reciprocal axes: (cart. coord. in units 2 pi/alat)
               b(1) = ( -1.0000 -1.0000  1.0000 )  
               b(2) = (  1.0000  1.0000  1.0000 )  
               b(3) = ( -1.0000  1.0000 -1.0000 )  


     Atoms inside the unit cell: 

     Cartesian axes

     site n.  atom      mass           positions (alat units)
        1     Si  28.0855   tau(    1) = (    0.00000    0.00000    0.00000  )
        2     C   12.0108   tau(    2) = (    0.25000    0.25000    0.25000  )

     Computing dynamical matrix for 
                    q = (   0.9000000   0.0000000   0.0000000 )

      4 Sym.Ops. (no q -> -q+G )


     G cutoff =  206.2337  (   3119 G-vectors)     FFT grid: ( 24, 24, 24)
     number of k points=   328

     PseudoPot. # 1 for Si read from file:
     ../Si.pz-vbc.UPF
     MD5 check sum: 6dfa03ddd5817404712e03e4d12deb78
     Pseudo is Norm-conserving, Zval =  4.0
     Generated by new atomic code, or converted to UPF format
     Using radial grid of  431 points,  2 beta functions with: 
                l(1) =   0
                l(2) =   1

     PseudoPot. # 2 for C  read from file:
     ../C.UPF
     MD5 check sum: 4781e8ce5ee01a432381f51d0ea25c53
     Pseudo is Norm-conserving, Zval =  4.0
     Generated by new atomic code, or converted to UPF format
     Using radial grid of  461 points,  2 beta functions with: 
                l(1) =   0
                l(2) =   1

     Mode symmetry, C_2v (mm2)  point group:


     Atomic displacements:
     There are    6 irreducible representations

     Representation     1      1 modes -  To be done

     Representation     2      1 modes -  To be done

     Representation     3      1 modes -  To be done

     Representation     4      1 modes -  To be done

     Representation     5      1 modes -  To be done

     Representation     6      1 modes -  To be done



     Alpha used in Ewald sum =   1.3000
     PHONON       :     19.43s CPU     20.36s WALL



     Representation #   1 mode #   1

     Self-consistent Calculation

      iter #   1 total cpu time :    20.7 secs   av.it.:   6.4
      thresh= 1.000E-02 alpha_mix =  0.700 |ddv_scf|^2 =  1.556E-04

      iter #   2 total cpu time :    21.1 secs   av.it.:   8.6
      thresh= 1.247E-03 alpha_mix =  0.700 |ddv_scf|^2 =  1.504E-04

      iter #   3 total cpu time :    21.5 secs   av.it.:   7.8
      thresh= 1.226E-03 alpha_mix =  0.700 |ddv_scf|^2 =  1.036E-06

      iter #   4 total cpu time :    21.9 secs   av.it.:   8.2
      thresh= 1.018E-04 alpha_mix =  0.700 |ddv_scf|^2 =  1.872E-08

      iter #   5 total cpu time :    22.3 secs   av.it.:   8.2
      thresh= 1.368E-05 alpha_mix =  0.700 |ddv_scf|^2 =  7.333E-11

      iter #   6 total cpu time :    22.8 secs   av.it.:   8.6
      thresh= 8.563E-07 alpha_mix =  0.700 |ddv_scf|^2 =  2.530E-12

      iter #   7 total cpu time :    23.2 secs   av.it.:   8.4
      thresh= 1.590E-07 alpha_mix =  0.700 |ddv_scf|^2 =  2.029E-13

     End of self-consistent calculation

     Convergence has been achieved 


     Representation #   2 mode #   2

     Self-consistent Calculation

      iter #   1 total cpu time :    23.5 secs   av.it.:   5.9
      thresh= 1.000E-02 alpha_mix =  0.700 |ddv_scf|^2 =  4.945E-05

      iter #   2 total cpu time :    24.0 secs   av.it.:   8.7
      thresh= 7.032E-04 alpha_mix =  0.700 |ddv_scf|^2 =  6.414E-05

      iter #   3 total cpu time :    24.4 secs   av.it.:   7.9
      thresh= 8.009E-04 alpha_mix =  0.700 |ddv_scf|^2 =  2.524E-07

      iter #   4 total cpu time :    24.8 secs   av.it.:   8.0
      thresh= 5.024E-05 alpha_mix =  0.700 |ddv_scf|^2 =  2.814E-09

      iter #   5 total cpu time :    25.2 secs   av.it.:   8.4
      thresh= 5.305E-06 alpha_mix =  0.700 |ddv_scf|^2 =  1.614E-10

      iter #   6 total cpu time :    25.7 secs   av.it.:   8.2
      thresh= 1.270E-06 alpha_mix =  0.700 |ddv_scf|^2 =  7.209E-13

     End of self-consistent calculation

     Convergence has been achieved 


     Representation #   3 mode #   3

     Self-consistent Calculation

      iter #   1 total cpu time :    26.0 secs   av.it.:   5.2
      thresh= 1.000E-02 alpha_mix =  0.700 |ddv_scf|^2 =  2.709E-06

      iter #   2 total cpu time :    26.4 secs   av.it.:   8.6
      thresh= 1.646E-04 alpha_mix =  0.700 |ddv_scf|^2 =  2.052E-07

      iter #   3 total cpu time :    26.9 secs   av.it.:   8.4
      thresh= 4.530E-05 alpha_mix =  0.700 |ddv_scf|^2 =  6.570E-10

      iter #   4 total cpu time :    27.3 secs   av.it.:   8.0
      thresh= 2.563E-06 alpha_mix =  0.700 |ddv_scf|^2 =  1.913E-12

      iter #   5 total cpu time :    27.7 secs   av.it.:   8.5
      thresh= 1.383E-07 alpha_mix =  0.700 |ddv_scf|^2 =  8.140E-15

     End of self-consistent calculation

     Convergence has been achieved 


     Representation #   4 mode #   4

     Self-consistent Calculation

      iter #   1 total cpu time :    28.0 secs   av.it.:   6.1
      thresh= 1.000E-02 alpha_mix =  0.700 |ddv_scf|^2 =  1.786E-05

      iter #   2 total cpu time :    28.5 secs   av.it.:   8.6
      thresh= 4.226E-04 alpha_mix =  0.700 |ddv_scf|^2 =  1.481E-06

      iter #   3 total cpu time :    28.9 secs   av.it.:   8.4
      thresh= 1.217E-04 alpha_mix =  0.700 |ddv_scf|^2 =  5.101E-10

      iter #   4 total cpu time :    29.3 secs   av.it.:   8.6
      thresh= 2.259E-06 alpha_mix =  0.700 |ddv_scf|^2 =  1.411E-11

      iter #   5 total cpu time :    29.7 secs   av.it.:   7.9
      thresh= 3.757E-07 alpha_mix =  0.700 |ddv_scf|^2 =  1.385E-14

     End of self-consistent calculation

     Convergence has been achieved 


     Representation #   5 mode #   5

     Self-consistent Calculation

      iter #   1 total cpu time :    30.1 secs   av.it.:   6.1
      thresh= 1.000E-02 alpha_mix =  0.700 |ddv_scf|^2 =  1.786E-05

      iter #   2 total cpu time :    30.5 secs   av.it.:   8.6
      thresh= 4.226E-04 alpha_mix =  0.700 |ddv_scf|^2 =  1.481E-06

      iter #   3 total cpu time :    30.9 secs   av.it.:   8.4
      thresh= 1.217E-04 alpha_mix =  0.700 |ddv_scf|^2 =  5.101E-10

      iter #   4 total cpu time :    31.4 secs   av.it.:   8.6
      thresh= 2.259E-06 alpha_mix =  0.700 |ddv_scf|^2 =  1.411E-11

      iter #   5 total cpu time :    31.8 secs   av.it.:   7.9
      thresh= 3.756E-07 alpha_mix =  0.700 |ddv_scf|^2 =  1.386E-14

     End of self-consistent calculation

     Convergence has been achieved 


     Representation #   6 mode #   6

     Self-consistent Calculation

      iter #   1 total cpu time :    32.1 secs   av.it.:   5.2
      thresh= 1.000E-02 alpha_mix =  0.700 |ddv_scf|^2 =  2.709E-06

      iter #   2 total cpu time :    32.6 secs   av.it.:   8.6
      thresh= 1.646E-04 alpha_mix =  0.700 |ddv_scf|^2 =  2.052E-07

      iter #   3 total cpu time :    33.0 secs   av.it.:   8.4
      thresh= 4.530E-05 alpha_mix =  0.700 |ddv_scf|^2 =  6.570E-10

      iter #   4 total cpu time :    33.4 secs   av.it.:   8.0
      thresh= 2.563E-06 alpha_mix =  0.700 |ddv_scf|^2 =  1.915E-12

      iter #   5 total cpu time :    33.9 secs   av.it.:   8.5
      thresh= 1.384E-07 alpha_mix =  0.700 |ddv_scf|^2 =  8.157E-15

     End of self-consistent calculation

     Convergence has been achieved 

     Number of q in the star =    6
     List of q in the star:
          1   0.900000000   0.000000000   0.000000000
          2  -0.900000000   0.000000000   0.000000000
          3   0.000000000   0.900000000   0.000000000
          4   0.000000000  -0.900000000   0.000000000
          5   0.000000000   0.000000000  -0.900000000
          6   0.000000000   0.000000000   0.900000000

     Diagonalizing the dynamical matrix

     q = (    0.900000000   0.000000000   0.000000000 ) 

 **************************************************************************
     freq (    1) =      10.571311 [THz] =     352.620990 [cm-1]
     freq (    2) =      10.571311 [THz] =     352.620990 [cm-1]
     freq (    3) =      18.248812 [THz] =     608.714837 [cm-1]
     freq (    4) =      21.984458 [THz] =     733.322601 [cm-1]
     freq (    5) =      21.984458 [THz] =     733.322601 [cm-1]
     freq (    6) =      23.746434 [THz] =     792.095785 [cm-1]
 **************************************************************************

     Mode symmetry, C_2v (mm2)  point group:

     freq (   1-   1) =        352.6  [cm-1]   --> B_1  D_3  S_3      
     freq (   2-   2) =        352.6  [cm-1]   --> B_2  D_4  S_4      
     freq (   3-   3) =        608.7  [cm-1]   --> A_1  D_1  S_1      
     freq (   4-   4) =        733.3  [cm-1]   --> B_1  D_3  S_3      
     freq (   5-   5) =        733.3  [cm-1]   --> B_2  D_4  S_4      
     freq (   6-   6) =        792.1  [cm-1]   --> A_1  D_1  S_1      

     Calculation of q =    0.8500000   0.0000000   0.0000000

     G-vector sticks info
     --------------------
     sticks:   dense  smooth     PW     G-vecs:    dense   smooth      PW
     Sum         283     283    121                 3119     3119     869


     Title: 
     ---                                                                        


     bravais-lattice index     =            2
     lattice parameter (alat)  =       8.2370  a.u.
     unit-cell volume          =     139.7163 (a.u.)^3
     number of atoms/cell      =            2
     number of atomic types    =            2
     number of electrons       =         8.00
     number of Kohn-Sham states=            4
     kinetic-energy cutoff     =      30.0000  Ry
     charge density cutoff     =     120.0000  Ry
     Exchange-correlation= PZ
                           (   1   1   0   0   0   0   0)

     celldm(1)=   8.237000  celldm(2)=   0.000000  celldm(3)=   0.000000
     celldm(4)=   0.000000  celldm(5)=   0.000000  celldm(6)=   0.000000

     crystal axes: (cart. coord. in units of alat)
               a(1) = (  -0.500000   0.000000   0.500000 )  
               a(2) = (   0.000000   0.500000   0.500000 )  
               a(3) = (  -0.500000   0.500000   0.000000 )  

     reciprocal axes: (cart. coord. in units 2 pi/alat)
               b(1) = ( -1.000000 -1.000000  1.000000 )  
               b(2) = (  1.000000  1.000000  1.000000 )  
               b(3) = ( -1.000000  1.000000 -1.000000 )  


     PseudoPot. # 1 for Si read from file:
     ../Si.pz-vbc.UPF
     MD5 check sum: 6dfa03ddd5817404712e03e4d12deb78
     Pseudo is Norm-conserving, Zval =  4.0
     Generated by new atomic code, or converted to UPF format
     Using radial grid of  431 points,  2 beta functions with: 
                l(1) =   0
                l(2) =   1

     PseudoPot. # 2 for C  read from file:
     ../C.UPF
     MD5 check sum: 4781e8ce5ee01a432381f51d0ea25c53
     Pseudo is Norm-conserving, Zval =  4.0
     Generated by new atomic code, or converted to UPF format
     Using radial grid of  461 points,  2 beta functions with: 
                l(1) =   0
                l(2) =   1

     atomic species   valence    mass     pseudopotential
        Si             4.00    28.08550     Si( 1.00)
        C              4.00    12.01078     C ( 1.00)

     24 Sym. Ops. (no inversion) found



   Cartesian axes

     site n.     atom                  positions (alat units)
         1           Si  tau(   1) = (   0.0000000   0.0000000   0.0000000  )
         2           C   tau(   2) = (   0.2500000   0.2500000   0.2500000  )

     number of k points=   328

     Number of k-points >= 100: set verbosity='high' to print them.

     Dense  grid:     3119 G-vectors     FFT dimensions: (  24,  24,  24)

     Estimated max dynamical RAM per process >       1.86 MB

     Estimated total dynamical RAM >       7.44 MB

     The potential is recalculated from file :
     ./_ph0/sic.q_4/sic.save/charge-density

     Starting wfcs are   13 atomic wfcs

     Band Structure Calculation
     Davidson diagonalization with overlap

     ethr =  1.25E-10,  avg # of iterations = 10.5

     total cpu time spent up to now is        4.1 secs

     End of band structure calculation

     Number of k-points >= 100: set verbosity='high' to print the bands.

     highest occupied level (ev):     9.3594

     Writing output data file ./_ph0/sic.q_4/sic.save/

     ---                                                                        

     bravais-lattice index     =            2
     lattice parameter (alat)  =       8.2370  a.u.
     unit-cell volume          =     139.7163 (a.u.)^3
     number of atoms/cell      =            2
     number of atomic types    =            2
     kinetic-energy cut-off    =      30.0000  Ry
     charge density cut-off    =     120.0000  Ry
     convergence threshold     =      1.0E-12
     beta                      =       0.7000
     number of iterations used =            4
     Exchange-correlation= PZ
                           (   1   1   0   0   0   0   0)


     celldm(1)=    8.23700  celldm(2)=    0.00000  celldm(3)=    0.00000
     celldm(4)=    0.00000  celldm(5)=    0.00000  celldm(6)=    0.00000

     crystal axes: (cart. coord. in units of alat)
               a(1) = ( -0.5000  0.0000  0.5000 )  
               a(2) = (  0.0000  0.5000  0.5000 )  
               a(3) = ( -0.5000  0.5000  0.0000 )  

     reciprocal axes: (cart. coord. in units 2 pi/alat)
               b(1) = ( -1.0000 -1.0000  1.0000 )  
               b(2) = (  1.0000  1.0000  1.0000 )  
               b(3) = ( -1.0000  1.0000 -1.0000 )  


     Atoms inside the unit cell: 

     Cartesian axes

     site n.  atom      mass           positions (alat units)
        1     Si  28.0855   tau(    1) = (    0.00000    0.00000    0.00000  )
        2     C   12.0108   tau(    2) = (    0.25000    0.25000    0.25000  )

     Computing dynamical matrix for 
                    q = (   0.8500000   0.0000000   0.0000000 )

      4 Sym.Ops. (no q -> -q+G )


     G cutoff =  206.2337  (   3119 G-vectors)     FFT grid: ( 24, 24, 24)
     number of k points=   328

     PseudoPot. # 1 for Si read from file:
     ../Si.pz-vbc.UPF
     MD5 check sum: 6dfa03ddd5817404712e03e4d12deb78
     Pseudo is Norm-conserving, Zval =  4.0
     Generated by new atomic code, or converted to UPF format
     Using radial grid of  431 points,  2 beta functions with: 
                l(1) =   0
                l(2) =   1

     PseudoPot. # 2 for C  read from file:
     ../C.UPF
     MD5 check sum: 4781e8ce5ee01a432381f51d0ea25c53
     Pseudo is Norm-conserving, Zval =  4.0
     Generated by new atomic code, or converted to UPF format
     Using radial grid of  461 points,  2 beta functions with: 
                l(1) =   0
                l(2) =   1

     Mode symmetry, C_2v (mm2)  point group:


     Atomic displacements:
     There are    6 irreducible representations

     Representation     1      1 modes -  To be done

     Representation     2      1 modes -  To be done

     Representation     3      1 modes -  To be done

     Representation     4      1 modes -  To be done

     Representation     5      1 modes -  To be done

     Representation     6      1 modes -  To be done



     Alpha used in Ewald sum =   1.3000
     PHONON       :     33.86s CPU     35.25s WALL



     Representation #   1 mode #   1

     Self-consistent Calculation

      iter #   1 total cpu time :    35.6 secs   av.it.:   6.4
      thresh= 1.000E-02 alpha_mix =  0.700 |ddv_scf|^2 =  1.850E-04

      iter #   2 total cpu time :    36.0 secs   av.it.:   8.5
      thresh= 1.360E-03 alpha_mix =  0.700 |ddv_scf|^2 =  2.253E-04

      iter #   3 total cpu time :    36.4 secs   av.it.:   7.7
      thresh= 1.501E-03 alpha_mix =  0.700 |ddv_scf|^2 =  1.664E-06

      iter #   4 total cpu time :    36.9 secs   av.it.:   8.2
      thresh= 1.290E-04 alpha_mix =  0.700 |ddv_scf|^2 =  2.796E-08

      iter #   5 total cpu time :    37.3 secs   av.it.:   8.1
      thresh= 1.672E-05 alpha_mix =  0.700 |ddv_scf|^2 =  7.148E-11

      iter #   6 total cpu time :    37.8 secs   av.it.:   8.6
      thresh= 8.455E-07 alpha_mix =  0.700 |ddv_scf|^2 =  2.578E-12

      iter #   7 total cpu time :    38.2 secs   av.it.:   8.5
      thresh= 1.605E-07 alpha_mix =  0.700 |ddv_scf|^2 =  2.074E-13

     End of self-consistent calculation

     Convergence has been achieved 


     Representation #   2 mode #   2

     Self-consistent Calculation

      iter #   1 total cpu time :    38.6 secs   av.it.:   5.9
      thresh= 1.000E-02 alpha_mix =  0.700 |ddv_scf|^2 =  6.306E-05

      iter #   2 total cpu time :    39.0 secs   av.it.:   8.6
      thresh= 7.941E-04 alpha_mix =  0.700 |ddv_scf|^2 =  9.663E-05

      iter #   3 total cpu time :    39.4 secs   av.it.:   7.8
      thresh= 9.830E-04 alpha_mix =  0.700 |ddv_scf|^2 =  2.440E-07

      iter #   4 total cpu time :    39.9 secs   av.it.:   7.9
      thresh= 4.940E-05 alpha_mix =  0.700 |ddv_scf|^2 =  4.316E-09

      iter #   5 total cpu time :    40.3 secs   av.it.:   8.4
      thresh= 6.569E-06 alpha_mix =  0.700 |ddv_scf|^2 =  1.360E-10

      iter #   6 total cpu time :    40.8 secs   av.it.:   8.3
      thresh= 1.166E-06 alpha_mix =  0.700 |ddv_scf|^2 =  7.925E-13

     End of self-consistent calculation

     Convergence has been achieved 


     Representation #   3 mode #   3

     Self-consistent Calculation

      iter #   1 total cpu time :    41.1 secs   av.it.:   5.2
      thresh= 1.000E-02 alpha_mix =  0.700 |ddv_scf|^2 =  2.604E-06

      iter #   2 total cpu time :    41.5 secs   av.it.:   8.6
      thresh= 1.614E-04 alpha_mix =  0.700 |ddv_scf|^2 =  1.901E-07

      iter #   3 total cpu time :    42.0 secs   av.it.:   8.4
      thresh= 4.360E-05 alpha_mix =  0.700 |ddv_scf|^2 =  6.518E-10

      iter #   4 total cpu time :    42.4 secs   av.it.:   8.0
      thresh= 2.553E-06 alpha_mix =  0.700 |ddv_scf|^2 =  2.315E-12

      iter #   5 total cpu time :    42.9 secs   av.it.:   8.5
      thresh= 1.522E-07 alpha_mix =  0.700 |ddv_scf|^2 =  8.181E-15

     End of self-consistent calculation

     Convergence has been achieved 


     Representation #   4 mode #   4

     Self-consistent Calculation

      iter #   1 total cpu time :    43.3 secs   av.it.:   6.1
      thresh= 1.000E-02 alpha_mix =  0.700 |ddv_scf|^2 =  1.744E-05

      iter #   2 total cpu time :    43.7 secs   av.it.:   8.6
      thresh= 4.176E-04 alpha_mix =  0.700 |ddv_scf|^2 =  1.398E-06

      iter #   3 total cpu time :    44.1 secs   av.it.:   8.4
      thresh= 1.182E-04 alpha_mix =  0.700 |ddv_scf|^2 =  4.966E-10

      iter #   4 total cpu time :    44.6 secs   av.it.:   8.6
      thresh= 2.228E-06 alpha_mix =  0.700 |ddv_scf|^2 =  1.432E-11

      iter #   5 total cpu time :    45.0 secs   av.it.:   7.9
      thresh= 3.784E-07 alpha_mix =  0.700 |ddv_scf|^2 =  1.371E-14

     End of self-consistent calculation

     Convergence has been achieved 


     Representation #   5 mode #   5

     Self-consistent Calculation

      iter #   1 total cpu time :    45.4 secs   av.it.:   6.1
      thresh= 1.000E-02 alpha_mix =  0.700 |ddv_scf|^2 =  1.744E-05

      iter #   2 total cpu time :    45.8 secs   av.it.:   8.6
      thresh= 4.176E-04 alpha_mix =  0.700 |ddv_scf|^2 =  1.398E-06

      iter #   3 total cpu time :    46.3 secs   av.it.:   8.4
      thresh= 1.182E-04 alpha_mix =  0.700 |ddv_scf|^2 =  4.965E-10

      iter #   4 total cpu time :    46.8 secs   av.it.:   8.6
      thresh= 2.228E-06 alpha_mix =  0.700 |ddv_scf|^2 =  1.432E-11

      iter #   5 total cpu time :    47.2 secs   av.it.:   7.9
      thresh= 3.784E-07 alpha_mix =  0.700 |ddv_scf|^2 =  1.372E-14

     End of self-consistent calculation

     Convergence has been achieved 


     Representation #   6 mode #   6

     Self-consistent Calculation

      iter #   1 total cpu time :    47.5 secs   av.it.:   5.2
      thresh= 1.000E-02 alpha_mix =  0.700 |ddv_scf|^2 =  2.604E-06

      iter #   2 total cpu time :    48.0 secs   av.it.:   8.6
      thresh= 1.614E-04 alpha_mix =  0.700 |ddv_scf|^2 =  1.901E-07

      iter #   3 total cpu time :    48.4 secs   av.it.:   8.4
      thresh= 4.360E-05 alpha_mix =  0.700 |ddv_scf|^2 =  6.518E-10

      iter #   4 total cpu time :    48.9 secs   av.it.:   8.0
      thresh= 2.553E-06 alpha_mix =  0.700 |ddv_scf|^2 =  2.316E-12

      iter #   5 total cpu time :    49.3 secs   av.it.:   8.5
      thresh= 1.522E-07 alpha_mix =  0.700 |ddv_scf|^2 =  8.182E-15

     End of self-consistent calculation

     Convergence has been achieved 

     Number of q in the star =    6
     List of q in the star:
          1   0.850000000   0.000000000   0.000000000
          2  -0.850000000   0.000000000   0.000000000
          3   0.000000000   0.850000000   0.000000000
          4   0.000000000  -0.850000000   0.000000000
          5   0.000000000   0.000000000  -0.850000000
          6   0.000000000   0.000000000   0.850000000

     Diagonalizing the dynamical matrix

     q = (    0.850000000   0.000000000   0.000000000 ) 

 **************************************************************************
     freq (    1) =      10.441669 [THz] =     348.296589 [cm-1]
     freq (    2) =      10.441669 [THz] =     348.296589 [cm-1]
     freq (    3) =      17.711846 [THz] =     590.803593 [cm-1]
     freq (    4) =      22.028054 [THz] =     734.776778 [cm-1]
     freq (    5) =      22.028054 [THz] =     734.776778 [cm-1]
     freq (    6) =      24.101931 [THz] =     803.953869 [cm-1]
 **************************************************************************

     Mode symmetry, C_2v (mm2)  point group:

     freq (   1-   1) =        348.3  [cm-1]   --> B_1  D_3  S_3      
     freq (   2-   2) =        348.3  [cm-1]   --> B_2  D_4  S_4      
     freq (   3-   3) =        590.8  [cm-1]   --> A_1  D_1  S_1      
     freq (   4-   4) =        734.8  [cm-1]   --> B_1  D_3  S_3      
     freq (   5-   5) =        734.8  [cm-1]   --> B_2  D_4  S_4      
     freq (   6-   6) =        804.0  [cm-1]   --> A_1  D_1  S_1      

     Calculation of q =    0.8000000   0.0000000   0.0000000

     G-vector sticks info
     --------------------
     sticks:   dense  smooth     PW     G-vecs:    dense   smooth      PW
     Sum         283     283    121                 3119     3119     821


     Title: 
     ---                                                                        


     bravais-lattice index     =            2
     lattice parameter (alat)  =       8.2370  a.u.
     unit-cell volume          =     139.7163 (a.u.)^3
     number of atoms/cell      =            2
     number of atomic types    =            2
     number of electrons       =         8.00
     number of Kohn-Sham states=            4
     kinetic-energy cutoff     =      30.0000  Ry
     charge density cutoff     =     120.0000  Ry
     Exchange-correlation= PZ
                           (   1   1   0   0   0   0   0)

     celldm(1)=   8.237000  celldm(2)=   0.000000  celldm(3)=   0.000000
     celldm(4)=   0.000000  celldm(5)=   0.000000  celldm(6)=   0.000000

     crystal axes: (cart. coord. in units of alat)
               a(1) = (  -0.500000   0.000000   0.500000 )  
               a(2) = (   0.000000   0.500000   0.500000 )  
               a(3) = (  -0.500000   0.500000   0.000000 )  

     reciprocal axes: (cart. coord. in units 2 pi/alat)
               b(1) = ( -1.000000 -1.000000  1.000000 )  
               b(2) = (  1.000000  1.000000  1.000000 )  
               b(3) = ( -1.000000  1.000000 -1.000000 )  


     PseudoPot. # 1 for Si read from file:
     ../Si.pz-vbc.UPF
     MD5 check sum: 6dfa03ddd5817404712e03e4d12deb78
     Pseudo is Norm-conserving, Zval =  4.0
     Generated by new atomic code, or converted to UPF format
     Using radial grid of  431 points,  2 beta functions with: 
                l(1) =   0
                l(2) =   1

     PseudoPot. # 2 for C  read from file:
     ../C.UPF
     MD5 check sum: 4781e8ce5ee01a432381f51d0ea25c53
     Pseudo is Norm-conserving, Zval =  4.0
     Generated by new atomic code, or converted to UPF format
     Using radial grid of  461 points,  2 beta functions with: 
                l(1) =   0
                l(2) =   1

     atomic species   valence    mass     pseudopotential
        Si             4.00    28.08550     Si( 1.00)
        C              4.00    12.01078     C ( 1.00)

     24 Sym. Ops. (no inversion) found



   Cartesian axes

     site n.     atom                  positions (alat units)
         1           Si  tau(   1) = (   0.0000000   0.0000000   0.0000000  )
         2           C   tau(   2) = (   0.2500000   0.2500000   0.2500000  )

     number of k points=   328

     Number of k-points >= 100: set verbosity='high' to print them.

     Dense  grid:     3119 G-vectors     FFT dimensions: (  24,  24,  24)

     Estimated max dynamical RAM per process >       1.86 MB

     Estimated total dynamical RAM >       7.44 MB

     The potential is recalculated from file :
     ./_ph0/sic.q_5/sic.save/charge-density

     Starting wfcs are   13 atomic wfcs

     Band Structure Calculation
     Davidson diagonalization with overlap

     ethr =  1.25E-10,  avg # of iterations = 10.5

     total cpu time spent up to now is        5.4 secs

     End of band structure calculation

     Number of k-points >= 100: set verbosity='high' to print the bands.

     highest occupied level (ev):     9.3594

     Writing output data file ./_ph0/sic.q_5/sic.save/

     ---                                                                        

     bravais-lattice index     =            2
     lattice parameter (alat)  =       8.2370  a.u.
     unit-cell volume          =     139.7163 (a.u.)^3
     number of atoms/cell      =            2
     number of atomic types    =            2
     kinetic-energy cut-off    =      30.0000  Ry
     charge density cut-off    =     120.0000  Ry
     convergence threshold     =      1.0E-12
     beta                      =       0.7000
     number of iterations used =            4
     Exchange-correlation= PZ
                           (   1   1   0   0   0   0   0)


     celldm(1)=    8.23700  celldm(2)=    0.00000  celldm(3)=    0.00000
     celldm(4)=    0.00000  celldm(5)=    0.00000  celldm(6)=    0.00000

     crystal axes: (cart. coord. in units of alat)
               a(1) = ( -0.5000  0.0000  0.5000 )  
               a(2) = (  0.0000  0.5000  0.5000 )  
               a(3) = ( -0.5000  0.5000  0.0000 )  

     reciprocal axes: (cart. coord. in units 2 pi/alat)
               b(1) = ( -1.0000 -1.0000  1.0000 )  
               b(2) = (  1.0000  1.0000  1.0000 )  
               b(3) = ( -1.0000  1.0000 -1.0000 )  


     Atoms inside the unit cell: 

     Cartesian axes

     site n.  atom      mass           positions (alat units)
        1     Si  28.0855   tau(    1) = (    0.00000    0.00000    0.00000  )
        2     C   12.0108   tau(    2) = (    0.25000    0.25000    0.25000  )

     Computing dynamical matrix for 
                    q = (   0.8000000   0.0000000   0.0000000 )

      4 Sym.Ops. (no q -> -q+G )


     G cutoff =  206.2337  (   3119 G-vectors)     FFT grid: ( 24, 24, 24)
     number of k points=   328

     PseudoPot. # 1 for Si read from file:
     ../Si.pz-vbc.UPF
     MD5 check sum: 6dfa03ddd5817404712e03e4d12deb78
     Pseudo is Norm-conserving, Zval =  4.0
     Generated by new atomic code, or converted to UPF format
     Using radial grid of  431 points,  2 beta functions with: 
                l(1) =   0
                l(2) =   1

     PseudoPot. # 2 for C  read from file:
     ../C.UPF
     MD5 check sum: 4781e8ce5ee01a432381f51d0ea25c53
     Pseudo is Norm-conserving, Zval =  4.0
     Generated by new atomic code, or converted to UPF format
     Using radial grid of  461 points,  2 beta functions with: 
                l(1) =   0
                l(2) =   1

     Mode symmetry, C_2v (mm2)  point group:


     Atomic displacements:
     There are    6 irreducible representations

     Representation     1      1 modes -  To be done

     Representation     2      1 modes -  To be done

     Representation     3      1 modes -  To be done

     Representation     4      1 modes -  To be done

     Representation     5      1 modes -  To be done

     Representation     6      1 modes -  To be done



     Alpha used in Ewald sum =   1.3000
     PHONON       :     48.88s CPU     50.66s WALL



     Representation #   1 mode #   1

     Self-consistent Calculation

      iter #   1 total cpu time :    51.1 secs   av.it.:   6.5
      thresh= 1.000E-02 alpha_mix =  0.700 |ddv_scf|^2 =  2.309E-04

      iter #   2 total cpu time :    51.5 secs   av.it.:   8.4
      thresh= 1.519E-03 alpha_mix =  0.700 |ddv_scf|^2 =  3.580E-04

      iter #   3 total cpu time :    51.9 secs   av.it.:   7.6
      thresh= 1.892E-03 alpha_mix =  0.700 |ddv_scf|^2 =  2.003E-06

      iter #   4 total cpu time :    52.4 secs   av.it.:   8.3
      thresh= 1.415E-04 alpha_mix =  0.700 |ddv_scf|^2 =  4.317E-08

      iter #   5 total cpu time :    52.8 secs   av.it.:   8.1
      thresh= 2.078E-05 alpha_mix =  0.700 |ddv_scf|^2 =  6.322E-11

      iter #   6 total cpu time :    53.3 secs   av.it.:   8.5
      thresh= 7.951E-07 alpha_mix =  0.700 |ddv_scf|^2 =  2.490E-12

      iter #   7 total cpu time :    53.7 secs   av.it.:   8.4
      thresh= 1.578E-07 alpha_mix =  0.700 |ddv_scf|^2 =  2.032E-13

     End of self-consistent calculation

     Convergence has been achieved 


     Representation #   2 mode #   2

     Self-consistent Calculation

      iter #   1 total cpu time :    54.1 secs   av.it.:   5.9
      thresh= 1.000E-02 alpha_mix =  0.700 |ddv_scf|^2 =  8.483E-05

      iter #   2 total cpu time :    54.6 secs   av.it.:   8.6
      thresh= 9.210E-04 alpha_mix =  0.700 |ddv_scf|^2 =  1.558E-04

      iter #   3 total cpu time :    55.0 secs   av.it.:   7.7
      thresh= 1.248E-03 alpha_mix =  0.700 |ddv_scf|^2 =  2.283E-07

      iter #   4 total cpu time :    55.4 secs   av.it.:   7.8
      thresh= 4.778E-05 alpha_mix =  0.700 |ddv_scf|^2 =  5.522E-09

      iter #   5 total cpu time :    55.9 secs   av.it.:   8.4
      thresh= 7.431E-06 alpha_mix =  0.700 |ddv_scf|^2 =  1.239E-10

      iter #   6 total cpu time :    56.3 secs   av.it.:   8.4
      thresh= 1.113E-06 alpha_mix =  0.700 |ddv_scf|^2 =  1.025E-12

      iter #   7 total cpu time :    56.8 secs   av.it.:   8.2
      thresh= 1.012E-07 alpha_mix =  0.700 |ddv_scf|^2 =  9.473E-14

     End of self-consistent calculation

     Convergence has been achieved 


     Representation #   3 mode #   3

     Self-consistent Calculation

      iter #   1 total cpu time :    57.1 secs   av.it.:   5.2
      thresh= 1.000E-02 alpha_mix =  0.700 |ddv_scf|^2 =  2.465E-06

      iter #   2 total cpu time :    57.6 secs   av.it.:   8.6
      thresh= 1.570E-04 alpha_mix =  0.700 |ddv_scf|^2 =  1.710E-07

      iter #   3 total cpu time :    58.0 secs   av.it.:   8.4
      thresh= 4.136E-05 alpha_mix =  0.700 |ddv_scf|^2 =  6.450E-10

      iter #   4 total cpu time :    58.4 secs   av.it.:   8.0
      thresh= 2.540E-06 alpha_mix =  0.700 |ddv_scf|^2 =  2.925E-12

      iter #   5 total cpu time :    58.9 secs   av.it.:   8.4
      thresh= 1.710E-07 alpha_mix =  0.700 |ddv_scf|^2 =  8.301E-15

     End of self-consistent calculation

     Convergence has been achieved 


     Representation #   4 mode #   4

     Self-consistent Calculation

      iter #   1 total cpu time :    59.2 secs   av.it.:   6.1
      thresh= 1.000E-02 alpha_mix =  0.700 |ddv_scf|^2 =  1.690E-05

      iter #   2 total cpu time :    59.7 secs   av.it.:   8.6
      thresh= 4.110E-04 alpha_mix =  0.700 |ddv_scf|^2 =  1.292E-06

      iter #   3 total cpu time :    60.1 secs   av.it.:   8.4
      thresh= 1.137E-04 alpha_mix =  0.700 |ddv_scf|^2 =  4.790E-10

      iter #   4 total cpu time :    60.6 secs   av.it.:   8.6
      thresh= 2.188E-06 alpha_mix =  0.700 |ddv_scf|^2 =  1.459E-11

      iter #   5 total cpu time :    61.0 secs   av.it.:   7.9
      thresh= 3.820E-07 alpha_mix =  0.700 |ddv_scf|^2 =  1.342E-14

     End of self-consistent calculation

     Convergence has been achieved 


     Representation #   5 mode #   5

     Self-consistent Calculation

      iter #   1 total cpu time :    61.4 secs   av.it.:   6.1
      thresh= 1.000E-02 alpha_mix =  0.700 |ddv_scf|^2 =  1.690E-05

      iter #   2 total cpu time :    61.9 secs   av.it.:   8.6
      thresh= 4.110E-04 alpha_mix =  0.700 |ddv_scf|^2 =  1.292E-06

      iter #   3 total cpu time :    62.3 secs   av.it.:   8.4
      thresh= 1.137E-04 alpha_mix =  0.700 |ddv_scf|^2 =  4.789E-10

      iter #   4 total cpu time :    62.8 secs   av.it.:   8.6
      thresh= 2.188E-06 alpha_mix =  0.700 |ddv_scf|^2 =  1.459E-11

      iter #   5 total cpu time :    63.2 secs   av.it.:   7.9
      thresh= 3.820E-07 alpha_mix =  0.700 |ddv_scf|^2 =  1.343E-14

     End of self-consistent calculation

     Convergence has been achieved 


     Representation #   6 mode #   6

     Self-consistent Calculation

      iter #   1 total cpu time :    63.5 secs   av.it.:   5.2
      thresh= 1.000E-02 alpha_mix =  0.700 |ddv_scf|^2 =  2.465E-06

      iter #   2 total cpu time :    64.0 secs   av.it.:   8.6
      thresh= 1.570E-04 alpha_mix =  0.700 |ddv_scf|^2 =  1.710E-07

      iter #   3 total cpu time :    64.4 secs   av.it.:   8.4
      thresh= 4.136E-05 alpha_mix =  0.700 |ddv_scf|^2 =  6.450E-10

      iter #   4 total cpu time :    64.9 secs   av.it.:   8.0
      thresh= 2.540E-06 alpha_mix =  0.700 |ddv_scf|^2 =  2.927E-12

      iter #   5 total cpu time :    65.3 secs   av.it.:   8.4
      thresh= 1.711E-07 alpha_mix =  0.700 |ddv_scf|^2 =  8.307E-15

     End of self-consistent calculation

     Convergence has been achieved 

     Number of q in the star =    6
     List of q in the star:
          1   0.800000000   0.000000000   0.000000000
          2  -0.800000000   0.000000000   0.000000000
          3   0.000000000   0.800000000   0.000000000
          4   0.000000000  -0.800000000   0.000000000
          5   0.000000000   0.000000000  -0.800000000
          6   0.000000000   0.000000000   0.800000000

     Diagonalizing the dynamical matrix

     q = (    0.800000000   0.000000000   0.000000000 ) 

 **************************************************************************
     freq (    1) =      10.276408 [THz] =     342.784062 [cm-1]
     freq (    2) =      10.276408 [THz] =     342.784062 [cm-1]
     freq (    3) =      17.067272 [THz] =     569.302905 [cm-1]
     freq (    4) =      22.110269 [THz] =     737.519193 [cm-1]
     freq (    5) =      22.110269 [THz] =     737.519193 [cm-1]
     freq (    6) =      24.526706 [THz] =     818.122860 [cm-1]
 **************************************************************************

     Mode symmetry, C_2v (mm2)  point group:

     freq (   1-   1) =        342.8  [cm-1]   --> B_1  D_3  S_3      
     freq (   2-   2) =        342.8  [cm-1]   --> B_2  D_4  S_4      
     freq (   3-   3) =        569.3  [cm-1]   --> A_1  D_1  S_1      
     freq (   4-   4) =        737.5  [cm-1]   --> B_1  D_3  S_3      
     freq (   5-   5) =        737.5  [cm-1]   --> B_2  D_4  S_4      
     freq (   6-   6) =        818.1  [cm-1]   --> A_1  D_1  S_1      

     Calculation of q =    0.7500000   0.0000000   0.0000000

     G-vector sticks info
     --------------------
     sticks:   dense  smooth     PW     G-vecs:    dense   smooth      PW
     Sum         283     283    109                 3119     3119     749


     Title: 
     ---                                                                        


     bravais-lattice index     =            2
     lattice parameter (alat)  =       8.2370  a.u.
     unit-cell volume          =     139.7163 (a.u.)^3
     number of atoms/cell      =            2
     number of atomic types    =            2
     number of electrons       =         8.00
     number of Kohn-Sham states=            4
     kinetic-energy cutoff     =      30.0000  Ry
     charge density cutoff     =     120.0000  Ry
     Exchange-correlation= PZ
                           (   1   1   0   0   0   0   0)

     celldm(1)=   8.237000  celldm(2)=   0.000000  celldm(3)=   0.000000
     celldm(4)=   0.000000  celldm(5)=   0.000000  celldm(6)=   0.000000

     crystal axes: (cart. coord. in units of alat)
               a(1) = (  -0.500000   0.000000   0.500000 )  
               a(2) = (   0.000000   0.500000   0.500000 )  
               a(3) = (  -0.500000   0.500000   0.000000 )  

     reciprocal axes: (cart. coord. in units 2 pi/alat)
               b(1) = ( -1.000000 -1.000000  1.000000 )  
               b(2) = (  1.000000  1.000000  1.000000 )  
               b(3) = ( -1.000000  1.000000 -1.000000 )  


     PseudoPot. # 1 for Si read from file:
     ../Si.pz-vbc.UPF
     MD5 check sum: 6dfa03ddd5817404712e03e4d12deb78
     Pseudo is Norm-conserving, Zval =  4.0
     Generated by new atomic code, or converted to UPF format
     Using radial grid of  431 points,  2 beta functions with: 
                l(1) =   0
                l(2) =   1

     PseudoPot. # 2 for C  read from file:
     ../C.UPF
     MD5 check sum: 4781e8ce5ee01a432381f51d0ea25c53
     Pseudo is Norm-conserving, Zval =  4.0
     Generated by new atomic code, or converted to UPF format
     Using radial grid of  461 points,  2 beta functions with: 
                l(1) =   0
                l(2) =   1

     atomic species   valence    mass     pseudopotential
        Si             4.00    28.08550     Si( 1.00)
        C              4.00    12.01078     C ( 1.00)

     24 Sym. Ops. (no inversion) found



   Cartesian axes

     site n.     atom                  positions (alat units)
         1           Si  tau(   1) = (   0.0000000   0.0000000   0.0000000  )
         2           C   tau(   2) = (   0.2500000   0.2500000   0.2500000  )

     number of k points=   328

     Number of k-points >= 100: set verbosity='high' to print them.

     Dense  grid:     3119 G-vectors     FFT dimensions: (  24,  24,  24)

     Estimated max dynamical RAM per process >       1.86 MB

     Estimated total dynamical RAM >       7.44 MB

     The potential is recalculated from file :
     ./_ph0/sic.q_6/sic.save/charge-density

     Starting wfcs are   13 atomic wfcs

     Band Structure Calculation
     Davidson diagonalization with overlap

     ethr =  1.25E-10,  avg # of iterations = 10.5

     total cpu time spent up to now is        6.7 secs

     End of band structure calculation

     Number of k-points >= 100: set verbosity='high' to print the bands.

     highest occupied level (ev):     9.3594

     Writing output data file ./_ph0/sic.q_6/sic.save/

     ---                                                                        

     bravais-lattice index     =            2
     lattice parameter (alat)  =       8.2370  a.u.
     unit-cell volume          =     139.7163 (a.u.)^3
     number of atoms/cell      =            2
     number of atomic types    =            2
     kinetic-energy cut-off    =      30.0000  Ry
     charge density cut-off    =     120.0000  Ry
     convergence threshold     =      1.0E-12
     beta                      =       0.7000
     number of iterations used =            4
     Exchange-correlation= PZ
                           (   1   1   0   0   0   0   0)


     celldm(1)=    8.23700  celldm(2)=    0.00000  celldm(3)=    0.00000
     celldm(4)=    0.00000  celldm(5)=    0.00000  celldm(6)=    0.00000

     crystal axes: (cart. coord. in units of alat)
               a(1) = ( -0.5000  0.0000  0.5000 )  
               a(2) = (  0.0000  0.5000  0.5000 )  
               a(3) = ( -0.5000  0.5000  0.0000 )  

     reciprocal axes: (cart. coord. in units 2 pi/alat)
               b(1) = ( -1.0000 -1.0000  1.0000 )  
               b(2) = (  1.0000  1.0000  1.0000 )  
               b(3) = ( -1.0000  1.0000 -1.0000 )  


     Atoms inside the unit cell: 

     Cartesian axes

     site n.  atom      mass           positions (alat units)
        1     Si  28.0855   tau(    1) = (    0.00000    0.00000    0.00000  )
        2     C   12.0108   tau(    2) = (    0.25000    0.25000    0.25000  )

     Computing dynamical matrix for 
                    q = (   0.7500000   0.0000000   0.0000000 )

      4 Sym.Ops. (no q -> -q+G )


     G cutoff =  206.2337  (   3119 G-vectors)     FFT grid: ( 24, 24, 24)
     number of k points=   328

     PseudoPot. # 1 for Si read from file:
     ../Si.pz-vbc.UPF
     MD5 check sum: 6dfa03ddd5817404712e03e4d12deb78
     Pseudo is Norm-conserving, Zval =  4.0
     Generated by new atomic code, or converted to UPF format
     Using radial grid of  431 points,  2 beta functions with: 
                l(1) =   0
                l(2) =   1

     PseudoPot. # 2 for C  read from file:
     ../C.UPF
     MD5 check sum: 4781e8ce5ee01a432381f51d0ea25c53
     Pseudo is Norm-conserving, Zval =  4.0
     Generated by new atomic code, or converted to UPF format
     Using radial grid of  461 points,  2 beta functions with: 
                l(1) =   0
                l(2) =   1

     Mode symmetry, C_2v (mm2)  point group:


     Atomic displacements:
     There are    6 irreducible representations

     Representation     1      1 modes -  To be done

     Representation     2      1 modes -  To be done

     Representation     3      1 modes -  To be done

     Representation     4      1 modes -  To be done

     Representation     5      1 modes -  To be done

     Representation     6      1 modes -  To be done



     Alpha used in Ewald sum =   1.3000
     PHONON       :   1m 4.49s CPU   1m 6.62s WALL



     Representation #   1 mode #   1

     Self-consistent Calculation

      iter #   1 total cpu time :    67.0 secs   av.it.:   6.6
      thresh= 1.000E-02 alpha_mix =  0.700 |ddv_scf|^2 =  2.990E-04

      iter #   2 total cpu time :    67.4 secs   av.it.:   8.4
      thresh= 1.729E-03 alpha_mix =  0.700 |ddv_scf|^2 =  5.856E-04

      iter #   3 total cpu time :    67.9 secs   av.it.:   7.4
      thresh= 2.420E-03 alpha_mix =  0.700 |ddv_scf|^2 =  2.095E-06

      iter #   4 total cpu time :    68.3 secs   av.it.:   8.4
      thresh= 1.447E-04 alpha_mix =  0.700 |ddv_scf|^2 =  6.545E-08

      iter #   5 total cpu time :    68.8 secs   av.it.:   7.9
      thresh= 2.558E-05 alpha_mix =  0.700 |ddv_scf|^2 =  5.564E-11

      iter #   6 total cpu time :    69.2 secs   av.it.:   8.5
      thresh= 7.459E-07 alpha_mix =  0.700 |ddv_scf|^2 =  2.438E-12

      iter #   7 total cpu time :    69.7 secs   av.it.:   8.3
      thresh= 1.561E-07 alpha_mix =  0.700 |ddv_scf|^2 =  2.032E-13

     End of self-consistent calculation

     Convergence has been achieved 


     Representation #   2 mode #   2

     Self-consistent Calculation

      iter #   1 total cpu time :    70.0 secs   av.it.:   5.9
      thresh= 1.000E-02 alpha_mix =  0.700 |ddv_scf|^2 =  1.180E-04

      iter #   2 total cpu time :    70.5 secs   av.it.:   8.5
      thresh= 1.086E-03 alpha_mix =  0.700 |ddv_scf|^2 =  2.605E-04

      iter #   3 total cpu time :    70.9 secs   av.it.:   7.6
      thresh= 1.614E-03 alpha_mix =  0.700 |ddv_scf|^2 =  2.122E-07

      iter #   4 total cpu time :    71.3 secs   av.it.:   7.8
      thresh= 4.607E-05 alpha_mix =  0.700 |ddv_scf|^2 =  6.510E-09

      iter #   5 total cpu time :    71.8 secs   av.it.:   8.3
      thresh= 8.068E-06 alpha_mix =  0.700 |ddv_scf|^2 =  1.192E-10

      iter #   6 total cpu time :    72.2 secs   av.it.:   8.4
      thresh= 1.092E-06 alpha_mix =  0.700 |ddv_scf|^2 =  1.593E-12

      iter #   7 total cpu time :    72.7 secs   av.it.:   8.2
      thresh= 1.262E-07 alpha_mix =  0.700 |ddv_scf|^2 =  9.778E-14

     End of self-consistent calculation

     Convergence has been achieved 


     Representation #   3 mode #   3

     Self-consistent Calculation

      iter #   1 total cpu time :    73.0 secs   av.it.:   5.2
      thresh= 1.000E-02 alpha_mix =  0.700 |ddv_scf|^2 =  2.299E-06

      iter #   2 total cpu time :    73.5 secs   av.it.:   8.6
      thresh= 1.516E-04 alpha_mix =  0.700 |ddv_scf|^2 =  1.493E-07

      iter #   3 total cpu time :    73.9 secs   av.it.:   8.4
      thresh= 3.863E-05 alpha_mix =  0.700 |ddv_scf|^2 =  6.359E-10

      iter #   4 total cpu time :    74.4 secs   av.it.:   8.1
      thresh= 2.522E-06 alpha_mix =  0.700 |ddv_scf|^2 =  3.755E-12

      iter #   5 total cpu time :    74.8 secs   av.it.:   8.3
      thresh= 1.938E-07 alpha_mix =  0.700 |ddv_scf|^2 =  8.528E-15

     End of self-consistent calculation

     Convergence has been achieved 


     Representation #   4 mode #   4

     Self-consistent Calculation

      iter #   1 total cpu time :    75.2 secs   av.it.:   6.1
      thresh= 1.000E-02 alpha_mix =  0.700 |ddv_scf|^2 =  1.623E-05

      iter #   2 total cpu time :    75.7 secs   av.it.:   8.6
      thresh= 4.029E-04 alpha_mix =  0.700 |ddv_scf|^2 =  1.168E-06

      iter #   3 total cpu time :    76.1 secs   av.it.:   8.4
      thresh= 1.081E-04 alpha_mix =  0.700 |ddv_scf|^2 =  4.579E-10

      iter #   4 total cpu time :    76.6 secs   av.it.:   8.5
      thresh= 2.140E-06 alpha_mix =  0.700 |ddv_scf|^2 =  1.487E-11

      iter #   5 total cpu time :    77.0 secs   av.it.:   7.9
      thresh= 3.857E-07 alpha_mix =  0.700 |ddv_scf|^2 =  1.289E-14

     End of self-consistent calculation

     Convergence has been achieved 


     Representation #   5 mode #   5

     Self-consistent Calculation

      iter #   1 total cpu time :    77.4 secs   av.it.:   6.1
      thresh= 1.000E-02 alpha_mix =  0.700 |ddv_scf|^2 =  1.623E-05

      iter #   2 total cpu time :    77.9 secs   av.it.:   8.6
      thresh= 4.029E-04 alpha_mix =  0.700 |ddv_scf|^2 =  1.168E-06

      iter #   3 total cpu time :    78.4 secs   av.it.:   8.4
      thresh= 1.081E-04 alpha_mix =  0.700 |ddv_scf|^2 =  4.579E-10

      iter #   4 total cpu time :    78.9 secs   av.it.:   8.5
      thresh= 2.140E-06 alpha_mix =  0.700 |ddv_scf|^2 =  1.487E-11

      iter #   5 total cpu time :    79.3 secs   av.it.:   7.9
      thresh= 3.857E-07 alpha_mix =  0.700 |ddv_scf|^2 =  1.289E-14

     End of self-consistent calculation

     Convergence has been achieved 


     Representation #   6 mode #   6

     Self-consistent Calculation

      iter #   1 total cpu time :    79.6 secs   av.it.:   5.2
      thresh= 1.000E-02 alpha_mix =  0.700 |ddv_scf|^2 =  2.299E-06

      iter #   2 total cpu time :    80.1 secs   av.it.:   8.6
      thresh= 1.516E-04 alpha_mix =  0.700 |ddv_scf|^2 =  1.493E-07

      iter #   3 total cpu time :    80.6 secs   av.it.:   8.4
      thresh= 3.864E-05 alpha_mix =  0.700 |ddv_scf|^2 =  6.359E-10

      iter #   4 total cpu time :    81.0 secs   av.it.:   8.1
      thresh= 2.522E-06 alpha_mix =  0.700 |ddv_scf|^2 =  3.754E-12

      iter #   5 total cpu time :    81.5 secs   av.it.:   8.3
      thresh= 1.938E-07 alpha_mix =  0.700 |ddv_scf|^2 =  8.509E-15

     End of self-consistent calculation

     Convergence has been achieved 

     Number of q in the star =    6
     List of q in the star:
          1   0.750000000   0.000000000   0.000000000
          2  -0.750000000   0.000000000   0.000000000
          3   0.000000000   0.750000000   0.000000000
          4   0.000000000  -0.750000000   0.000000000
          5   0.000000000   0.000000000  -0.750000000
          6   0.000000000   0.000000000   0.750000000

     Diagonalizing the dynamical matrix

     q = (    0.750000000   0.000000000   0.000000000 ) 

 **************************************************************************
[...]
      thresh= 7.662E-05 alpha_mix =  0.700 |ddv_scf|^2 =  1.976E-08

      iter #   5 total cpu time :   584.7 secs   av.it.:   7.8
      thresh= 1.406E-05 alpha_mix =  0.700 |ddv_scf|^2 =  2.499E-10

      iter #   6 total cpu time :   585.0 secs   av.it.:   8.2
      thresh= 1.581E-06 alpha_mix =  0.700 |ddv_scf|^2 =  4.853E-12

      iter #   7 total cpu time :   585.4 secs   av.it.:   8.7
      thresh= 2.203E-07 alpha_mix =  0.700 |ddv_scf|^2 =  4.286E-12

      iter #   8 total cpu time :   585.7 secs   av.it.:   8.1
      thresh= 2.070E-07 alpha_mix =  0.700 |ddv_scf|^2 =  6.946E-13

     End of self-consistent calculation

     Convergence has been achieved 


     Representation #   3 modes #   3   4

     Self-consistent Calculation

      iter #   1 total cpu time :   586.3 secs   av.it.:   6.2
      thresh= 1.000E-02 alpha_mix =  0.700 |ddv_scf|^2 =  2.329E-06

      iter #   2 total cpu time :   587.1 secs   av.it.:   9.8
      thresh= 1.526E-04 alpha_mix =  0.700 |ddv_scf|^2 =  5.893E-08

      iter #   3 total cpu time :   587.9 secs   av.it.:   9.6
      thresh= 2.428E-05 alpha_mix =  0.700 |ddv_scf|^2 =  7.906E-11

      iter #   4 total cpu time :   588.6 secs   av.it.:   9.2
      thresh= 8.892E-07 alpha_mix =  0.700 |ddv_scf|^2 =  1.593E-12

      iter #   5 total cpu time :   589.4 secs   av.it.:   8.9
      thresh= 1.262E-07 alpha_mix =  0.700 |ddv_scf|^2 =  8.623E-15

     End of self-consistent calculation

     Convergence has been achieved 


     Representation #   4 modes #   5   6

     Self-consistent Calculation

      iter #   1 total cpu time :   590.0 secs   av.it.:   5.0
      thresh= 1.000E-02 alpha_mix =  0.700 |ddv_scf|^2 =  1.783E-07

      iter #   2 total cpu time :   590.8 secs   av.it.:   9.5
      thresh= 4.223E-05 alpha_mix =  0.700 |ddv_scf|^2 =  3.780E-09

      iter #   3 total cpu time :   591.6 secs   av.it.:   9.5
      thresh= 6.148E-06 alpha_mix =  0.700 |ddv_scf|^2 =  1.161E-10

      iter #   4 total cpu time :   592.3 secs   av.it.:   8.9
      thresh= 1.077E-06 alpha_mix =  0.700 |ddv_scf|^2 =  3.969E-12

      iter #   5 total cpu time :   593.1 secs   av.it.:   8.5
      thresh= 1.992E-07 alpha_mix =  0.700 |ddv_scf|^2 =  2.036E-15

     End of self-consistent calculation

     Convergence has been achieved 

     Number of q in the star =    4
     List of q in the star:
          1  -0.475000000   0.475000000   0.475000000
          2   0.475000000   0.475000000  -0.475000000
          3   0.475000000  -0.475000000   0.475000000
          4  -0.475000000  -0.475000000  -0.475000000
     In addition there is the -q list: 
          1   0.475000000  -0.475000000  -0.475000000
          2  -0.475000000  -0.475000000   0.475000000
          3  -0.475000000   0.475000000  -0.475000000
          4   0.475000000   0.475000000   0.475000000

     Diagonalizing the dynamical matrix

     q = (   -0.475000000   0.475000000   0.475000000 ) 

 **************************************************************************
     freq (    1) =       7.646444 [THz] =     255.057909 [cm-1]
     freq (    2) =       7.646444 [THz] =     255.057909 [cm-1]
     freq (    3) =      17.998092 [THz] =     600.351742 [cm-1]
     freq (    4) =      22.334108 [THz] =     744.985669 [cm-1]
     freq (    5) =      22.334108 [THz] =     744.985669 [cm-1]
     freq (    6) =      23.872231 [THz] =     796.291908 [cm-1]
 **************************************************************************

     Mode symmetry, C_3v (3m)   point group:

     freq (   1-   2) =        255.1  [cm-1]   --> E    L_3           
     freq (   3-   3) =        600.4  [cm-1]   --> A_1  L_1           
     freq (   4-   5) =        745.0  [cm-1]   --> E    L_3           
     freq (   6-   6) =        796.3  [cm-1]   --> A_1  L_1           

     Calculation of q =   -0.5000000   0.5000000   0.5000000

     G-vector sticks info
     --------------------
     sticks:   dense  smooth     PW     G-vecs:    dense   smooth      PW
     Sum         283     283    121                 3119     3119     869


     Title: 
     ---                                                                        


     bravais-lattice index     =            2
     lattice parameter (alat)  =       8.2370  a.u.
     unit-cell volume          =     139.7163 (a.u.)^3
     number of atoms/cell      =            2
     number of atomic types    =            2
     number of electrons       =         8.00
     number of Kohn-Sham states=            4
     kinetic-energy cutoff     =      30.0000  Ry
     charge density cutoff     =     120.0000  Ry
     Exchange-correlation= PZ
                           (   1   1   0   0   0   0   0)

     celldm(1)=   8.237000  celldm(2)=   0.000000  celldm(3)=   0.000000
     celldm(4)=   0.000000  celldm(5)=   0.000000  celldm(6)=   0.000000

     crystal axes: (cart. coord. in units of alat)
               a(1) = (  -0.500000   0.000000   0.500000 )  
               a(2) = (   0.000000   0.500000   0.500000 )  
               a(3) = (  -0.500000   0.500000   0.000000 )  

     reciprocal axes: (cart. coord. in units 2 pi/alat)
               b(1) = ( -1.000000 -1.000000  1.000000 )  
               b(2) = (  1.000000  1.000000  1.000000 )  
               b(3) = ( -1.000000  1.000000 -1.000000 )  


     PseudoPot. # 1 for Si read from file:
     ../Si.pz-vbc.UPF
     MD5 check sum: 6dfa03ddd5817404712e03e4d12deb78
     Pseudo is Norm-conserving, Zval =  4.0
     Generated by new atomic code, or converted to UPF format
     Using radial grid of  431 points,  2 beta functions with: 
                l(1) =   0
                l(2) =   1

     PseudoPot. # 2 for C  read from file:
     ../C.UPF
     MD5 check sum: 4781e8ce5ee01a432381f51d0ea25c53
     Pseudo is Norm-conserving, Zval =  4.0
     Generated by new atomic code, or converted to UPF format
     Using radial grid of  461 points,  2 beta functions with: 
                l(1) =   0
                l(2) =   1

     atomic species   valence    mass     pseudopotential
        Si             4.00    28.08550     Si( 1.00)
        C              4.00    12.01078     C ( 1.00)

     24 Sym. Ops. (no inversion) found



   Cartesian axes

     site n.     atom                  positions (alat units)
         1           Si  tau(   1) = (   0.0000000   0.0000000   0.0000000  )
         2           C   tau(   2) = (   0.2500000   0.2500000   0.2500000  )

     number of k points=   130

     Number of k-points >= 100: set verbosity='high' to print them.

     Dense  grid:     3119 G-vectors     FFT dimensions: (  24,  24,  24)

     Estimated max dynamical RAM per process >       1.86 MB

     Estimated total dynamical RAM >       7.44 MB

     The potential is recalculated from file :
     ./_ph0/sic.q_41/sic.save/charge-density

     Starting wfcs are   13 atomic wfcs

     Band Structure Calculation
     Davidson diagonalization with overlap

     ethr =  1.25E-10,  avg # of iterations = 10.4

     total cpu time spent up to now is       46.3 secs

     End of band structure calculation

     Number of k-points >= 100: set verbosity='high' to print the bands.

     highest occupied level (ev):     9.3594

     Writing output data file ./_ph0/sic.q_41/sic.save/

     ---                                                                        

     bravais-lattice index     =            2
     lattice parameter (alat)  =       8.2370  a.u.
     unit-cell volume          =     139.7163 (a.u.)^3
     number of atoms/cell      =            2
     number of atomic types    =            2
     kinetic-energy cut-off    =      30.0000  Ry
     charge density cut-off    =     120.0000  Ry
     convergence threshold     =      1.0E-12
     beta                      =       0.7000
     number of iterations used =            4
     Exchange-correlation= PZ
                           (   1   1   0   0   0   0   0)


     celldm(1)=    8.23700  celldm(2)=    0.00000  celldm(3)=    0.00000
     celldm(4)=    0.00000  celldm(5)=    0.00000  celldm(6)=    0.00000

     crystal axes: (cart. coord. in units of alat)
               a(1) = ( -0.5000  0.0000  0.5000 )  
               a(2) = (  0.0000  0.5000  0.5000 )  
               a(3) = ( -0.5000  0.5000  0.0000 )  

     reciprocal axes: (cart. coord. in units 2 pi/alat)
               b(1) = ( -1.0000 -1.0000  1.0000 )  
               b(2) = (  1.0000  1.0000  1.0000 )  
               b(3) = ( -1.0000  1.0000 -1.0000 )  


     Atoms inside the unit cell: 

     Cartesian axes

     site n.  atom      mass           positions (alat units)
        1     Si  28.0855   tau(    1) = (    0.00000    0.00000    0.00000  )
        2     C   12.0108   tau(    2) = (    0.25000    0.25000    0.25000  )

     Computing dynamical matrix for 
                    q = (  -0.5000000   0.5000000   0.5000000 )

      7 Sym.Ops. (with q -> -q+G )


     G cutoff =  206.2337  (   3119 G-vectors)     FFT grid: ( 24, 24, 24)
     number of k points=   130

     PseudoPot. # 1 for Si read from file:
     ../Si.pz-vbc.UPF
     MD5 check sum: 6dfa03ddd5817404712e03e4d12deb78
     Pseudo is Norm-conserving, Zval =  4.0
     Generated by new atomic code, or converted to UPF format
     Using radial grid of  431 points,  2 beta functions with: 
                l(1) =   0
                l(2) =   1

     PseudoPot. # 2 for C  read from file:
     ../C.UPF
     MD5 check sum: 4781e8ce5ee01a432381f51d0ea25c53
     Pseudo is Norm-conserving, Zval =  4.0
     Generated by new atomic code, or converted to UPF format
     Using radial grid of  461 points,  2 beta functions with: 
                l(1) =   0
                l(2) =   1

     Mode symmetry, C_3v (3m)   point group:


     Atomic displacements:
     There are    4 irreducible representations

     Representation     1      1 modes -  To be done

     Representation     2      1 modes -  To be done

     Representation     3      2 modes -  To be done

     Representation     4      2 modes -  To be done



     Alpha used in Ewald sum =   1.3000
     PHONON       :   9m32.56s CPU   9m53.84s WALL



     Representation #   1 mode #   1

     Self-consistent Calculation

      iter #   1 total cpu time :   594.0 secs   av.it.:   6.0
      thresh= 1.000E-02 alpha_mix =  0.700 |ddv_scf|^2 =  1.033E-04

      iter #   2 total cpu time :   594.2 secs   av.it.:   8.5
      thresh= 1.016E-03 alpha_mix =  0.700 |ddv_scf|^2 =  1.497E-04

      iter #   3 total cpu time :   594.4 secs   av.it.:   7.8
      thresh= 1.223E-03 alpha_mix =  0.700 |ddv_scf|^2 =  1.513E-07

      iter #   4 total cpu time :   594.7 secs   av.it.:   7.9
      thresh= 3.890E-05 alpha_mix =  0.700 |ddv_scf|^2 =  4.735E-09

      iter #   5 total cpu time :   594.9 secs   av.it.:   8.0
      thresh= 6.881E-06 alpha_mix =  0.700 |ddv_scf|^2 =  2.915E-10

      iter #   6 total cpu time :   595.1 secs   av.it.:   8.1
      thresh= 1.707E-06 alpha_mix =  0.700 |ddv_scf|^2 =  2.277E-12

      iter #   7 total cpu time :   595.3 secs   av.it.:   8.2
      thresh= 1.509E-07 alpha_mix =  0.700 |ddv_scf|^2 =  9.368E-14

     End of self-consistent calculation

     Convergence has been achieved 


     Representation #   2 mode #   2

     Self-consistent Calculation

      iter #   1 total cpu time :   595.5 secs   av.it.:   6.4
      thresh= 1.000E-02 alpha_mix =  0.700 |ddv_scf|^2 =  2.967E-04

      iter #   2 total cpu time :   595.7 secs   av.it.:   8.3
      thresh= 1.722E-03 alpha_mix =  0.700 |ddv_scf|^2 =  4.472E-04

      iter #   3 total cpu time :   595.9 secs   av.it.:   7.5
      thresh= 2.115E-03 alpha_mix =  0.700 |ddv_scf|^2 =  3.815E-07

      iter #   4 total cpu time :   596.1 secs   av.it.:   8.1
      thresh= 6.177E-05 alpha_mix =  0.700 |ddv_scf|^2 =  2.017E-08

      iter #   5 total cpu time :   596.3 secs   av.it.:   7.7
      thresh= 1.420E-05 alpha_mix =  0.700 |ddv_scf|^2 =  5.971E-10

      iter #   6 total cpu time :   596.6 secs   av.it.:   8.1
      thresh= 2.444E-06 alpha_mix =  0.700 |ddv_scf|^2 =  4.535E-12

      iter #   7 total cpu time :   596.8 secs   av.it.:   8.2
      thresh= 2.129E-07 alpha_mix =  0.700 |ddv_scf|^2 =  6.322E-14

     End of self-consistent calculation

     Convergence has been achieved 


     Representation #   3 modes #   3   4

     Self-consistent Calculation

      iter #   1 total cpu time :   597.1 secs   av.it.:   6.1
      thresh= 1.000E-02 alpha_mix =  0.700 |ddv_scf|^2 =  2.332E-06

      iter #   2 total cpu time :   597.6 secs   av.it.:   9.7
      thresh= 1.527E-04 alpha_mix =  0.700 |ddv_scf|^2 =  5.923E-08

      iter #   3 total cpu time :   598.1 secs   av.it.:   9.6
      thresh= 2.434E-05 alpha_mix =  0.700 |ddv_scf|^2 =  7.926E-11

      iter #   4 total cpu time :   598.5 secs   av.it.:   9.1
      thresh= 8.903E-07 alpha_mix =  0.700 |ddv_scf|^2 =  1.585E-12

      iter #   5 total cpu time :   598.9 secs   av.it.:   8.8
      thresh= 1.259E-07 alpha_mix =  0.700 |ddv_scf|^2 =  8.678E-15

     End of self-consistent calculation

     Convergence has been achieved 


     Representation #   4 modes #   5   6

     Self-consistent Calculation

      iter #   1 total cpu time :   599.2 secs   av.it.:   5.0
      thresh= 1.000E-02 alpha_mix =  0.700 |ddv_scf|^2 =  1.789E-07

      iter #   2 total cpu time :   599.7 secs   av.it.:   9.4
      thresh= 4.230E-05 alpha_mix =  0.700 |ddv_scf|^2 =  3.813E-09

      iter #   3 total cpu time :   600.2 secs   av.it.:   9.4
      thresh= 6.175E-06 alpha_mix =  0.700 |ddv_scf|^2 =  1.163E-10

      iter #   4 total cpu time :   600.6 secs   av.it.:   8.8
      thresh= 1.078E-06 alpha_mix =  0.700 |ddv_scf|^2 =  3.982E-12

      iter #   5 total cpu time :   601.0 secs   av.it.:   8.4
      thresh= 1.995E-07 alpha_mix =  0.700 |ddv_scf|^2 =  2.019E-15

     End of self-consistent calculation

     Convergence has been achieved 

     Number of q in the star =    4
     List of q in the star:
          1  -0.500000000   0.500000000   0.500000000
          2   0.500000000   0.500000000  -0.500000000
          3   0.500000000  -0.500000000   0.500000000
          4  -0.500000000  -0.500000000  -0.500000000

     Diagonalizing the dynamical matrix

     q = (   -0.500000000   0.500000000   0.500000000 ) 

 **************************************************************************
     freq (    1) =       7.589058 [THz] =     253.143723 [cm-1]
     freq (    2) =       7.589058 [THz] =     253.143723 [cm-1]
     freq (    3) =      18.090379 [THz] =     603.430082 [cm-1]
     freq (    4) =      22.251447 [THz] =     742.228393 [cm-1]
     freq (    5) =      22.251447 [THz] =     742.228393 [cm-1]
     freq (    6) =      23.634274 [THz] =     788.354529 [cm-1]
 **************************************************************************

     Mode symmetry, C_3v (3m)   point group:

     freq (   1-   2) =        253.1  [cm-1]   --> E    L_3           
     freq (   3-   3) =        603.4  [cm-1]   --> A_1  L_1           
     freq (   4-   5) =        742.2  [cm-1]   --> E    L_3           
     freq (   6-   6) =        788.4  [cm-1]   --> A_1  L_1           

     init_run     :      1.32s CPU      1.41s WALL (      41 calls)
     electrons    :     42.45s CPU     43.86s WALL (      41 calls)

     Called by init_run:
     wfcinit      :      0.00s CPU      0.01s WALL (      41 calls)
     potinit      :      0.13s CPU      0.16s WALL (      41 calls)
     hinit0       :      1.02s CPU      1.05s WALL (      41 calls)

     Called by electrons:
     c_bands      :     42.45s CPU     43.84s WALL (      41 calls)
     v_of_rho     :      0.04s CPU      0.04s WALL (      42 calls)

     Called by c_bands:
     init_us_2    :      2.80s CPU      2.89s WALL (   55675 calls)
     cegterg      :     30.46s CPU     31.43s WALL (    2770 calls)

     Called by *egterg:
     cdiaghg      :      1.99s CPU      2.05s WALL (   31503 calls)
     h_psi        :    431.91s CPU    443.76s WALL (  491626 calls)
     g_psi        :      0.12s CPU      0.13s WALL (   28733 calls)

     Called by h_psi:
     h_psi:calbec :      5.85s CPU      6.29s WALL (  491626 calls)
     vloc_psi     :    417.67s CPU    428.14s WALL (  491626 calls)
     add_vuspsi   :      6.31s CPU      6.57s WALL (  491626 calls)

     General routines
     calbec       :     10.58s CPU     11.04s WALL (  996229 calls)
     fft          :      0.74s CPU      0.76s WALL (    4514 calls)
     ffts         :      1.60s CPU      1.63s WALL (    9582 calls)
     fftw         :    454.46s CPU    464.78s WALL ( 4386034 calls)
     davcio       :      0.76s CPU      3.09s WALL (  248673 calls)

     Parallel routines

     PHONON       :   9m39.52s CPU  10m 1.02s WALL

     INITIALIZATION: 
     phq_setup    :      0.08s CPU      0.11s WALL (      41 calls)
     phq_init     :      1.47s CPU      1.58s WALL (      41 calls)

     phq_init     :      1.47s CPU      1.58s WALL (      41 calls)
     init_vloc    :      0.02s CPU      0.02s WALL (      42 calls)
     init_us_1    :      0.44s CPU      0.46s WALL (      42 calls)

     DYNAMICAL MATRIX:
     dynmat0      :      0.38s CPU      0.43s WALL (      41 calls)
     phqscf       :    531.45s CPU    551.11s WALL (      41 calls)
     dynmatrix    :      0.03s CPU      0.05s WALL (      41 calls)

     phqscf       :    531.45s CPU    551.11s WALL (      41 calls)
     solve_linter :    530.01s CPU    549.38s WALL (     200 calls)
     drhodv       :      1.35s CPU      1.44s WALL (     200 calls)

     dynmat0      :      0.38s CPU      0.43s WALL (      41 calls)
     dynmat_us    :      0.33s CPU      0.34s WALL (      41 calls)
     d2ionq       :      0.04s CPU      0.04s WALL (      41 calls)

     dynmat_us    :      0.33s CPU      0.34s WALL (      41 calls)

     phqscf       :    531.45s CPU    551.11s WALL (      41 calls)
     solve_linter :    530.01s CPU    549.38s WALL (     200 calls)

     solve_linter :    530.01s CPU    549.38s WALL (     200 calls)
     dvqpsi_us    :      9.46s CPU      9.69s WALL (    8382 calls)
     ortho        :      0.93s CPU      0.99s WALL (   49136 calls)
     cgsolve      :    418.59s CPU    431.25s WALL (   49136 calls)
     incdrhoscf   :     49.49s CPU     50.71s WALL (   49112 calls)
     vpsifft      :     36.96s CPU     38.05s WALL (   40682 calls)
     dv_of_drho   :      0.78s CPU      0.80s WALL (    1449 calls)
     mix_pot      :      7.10s CPU      7.87s WALL (    1219 calls)
     psymdvscf    :      2.38s CPU      2.42s WALL (    1215 calls)

     dvqpsi_us    :      9.46s CPU      9.69s WALL (    8382 calls)
     dvqpsi_us_on :      0.29s CPU      0.31s WALL (    8382 calls)

     cgsolve      :    418.59s CPU    431.25s WALL (   49136 calls)
     ch_psi       :    414.22s CPU    426.65s WALL (  457353 calls)

     ch_psi       :    414.22s CPU    426.65s WALL (  457353 calls)
     h_psi        :    431.91s CPU    443.76s WALL (  491626 calls)
     last         :     13.90s CPU     14.71s WALL (  457353 calls)

     h_psi        :    431.91s CPU    443.76s WALL (  491626 calls)
     add_vuspsi   :      6.31s CPU      6.57s WALL (  491626 calls)

     incdrhoscf   :     49.49s CPU     50.71s WALL (   49112 calls)


      General routines
     calbec       :     10.58s CPU     11.04s WALL (  996229 calls)
     fft          :      0.74s CPU      0.76s WALL (    4514 calls)
     ffts         :      1.60s CPU      1.63s WALL (    9582 calls)
     fftw         :    454.46s CPU    464.78s WALL ( 4386034 calls)
     davcio       :      0.76s CPU      3.09s WALL (  248673 calls)
     write_rec    :      0.24s CPU      1.61s WALL (    1419 calls)


     PHONON       :   9m39.52s CPU  10m 1.02s WALL


   This run was terminated on:  22: 1:39  15Jun2021            

=------------------------------------------------------------------------------=
   JOB DONE.
=------------------------------------------------------------------------------=
