
     Program BANDS v.6.7MaX starts on 15Jun2021 at 11:36: 9 

     This program is part of the open-source Quantum ESPRESSO suite
     for quantum simulation of materials; please cite
         "P. Giannozzi et al., J. Phys.:Condens. Matter 21 395502 (2009);
         "P. Giannozzi et al., J. Phys.:Condens. Matter 29 465901 (2017);
          URL http://www.quantum-espresso.org", 
     in publications or presentations arising from this work. More details at
     http://www.quantum-espresso.org/quote

     Parallel version (MPI & OpenMP), running on       1 processor cores
     Number of MPI processes:                 1
     Threads/MPI process:                     1

     MPI processes distributed on     1 nodes

     Reading xml data from directory:

     ./pb.save/
     file Pb.pbe-dn-kjpaw_psl.0.2.2.UPF: wavefunction(s)  6S renormalized

     IMPORTANT: XC functional enforced from input :
     Exchange-correlation= PBE
                           (   1   4   3   4   0   0   0)
     Any further DFT definition will be discarded
     Please, verify this is what you really want


     G-vector sticks info
     --------------------
     sticks:   dense  smooth     PW     G-vecs:    dense   smooth      PW
     Sum         583     571    187                 9089     8873    1639


     Check: negative core charge=   -0.000003
     Reading collected, re-writing distributed wavefunctions
     high-symmetry point:  0.0000 0.0000 0.0000   x coordinate   0.0000
     high-symmetry point:  0.0000 0.0000 1.0000   x coordinate   1.0000
     high-symmetry point:  0.0000 0.5000 1.0000   x coordinate   1.5000
     high-symmetry point:  0.5000 0.5000 0.5000   x coordinate   2.2071
     high-symmetry point:  0.0000 0.0000 0.0000   x coordinate   3.0731
     high-symmetry point:  1.0000 0.0000 1.0000   x coordinate   4.4873

     Plottable bands (eV) written to file bands.dat.gnu
     Bands written to file bands.dat

 **************************************************************************

                    xk=(   0.00000,   0.00000,   0.00000  )

     point group C_1 (1)    
     there are  1 classes
     the character table:

       E    
A      1.00

     the symmetry operations in each class and the name of the first element:

     E        1
                                                                 

     Band symmetry, C_1 (1)     point group:

     e(  1 -  3) =     -5.81419  eV     3   -->   3 A              
     e(  4 -  5) =     -5.67524  eV     2   -->   2 A              
     e(  6 -  6) =     -0.49675  eV     1   --> A              
     e(  7 -  9) =     18.67666  eV     3   -->   3 A              
     e( 10 - 10) =     21.37444  eV     1   --> A              
     e( 11 - 11) =     22.58019  eV     1   --> A              
     e( 12 - 13) =     23.75980  eV     2   -->   2 A              

 **************************************************************************

 **************************************************************************

                    xk=(   0.00000,   0.00000,   0.02000  )

     Band symmetry, C_1 (1)     point group:

     e(  1 -  1) =     -5.81435  eV     1   --> A              
     e(  2 -  3) =     -5.81390  eV     2   -->   2 A              
     e(  4 -  4) =     -5.67541  eV     1   --> A              
     e(  5 -  5) =     -5.67512  eV     1   --> A              
     e(  6 -  6) =     -0.49418  eV     1   --> A              
     e(  7 -  7) =     18.65593  eV     1   --> A              
     e(  8 -  9) =     18.66392  eV     2   -->   2 A              
     e( 10 - 10) =     21.36092  eV     1   --> A              
     e( 11 - 11) =     22.60367  eV     1   --> A              
     e( 12 - 13) =     23.77733  eV     2   -->   2 A              

 **************************************************************************

 **************************************************************************

                    xk=(   0.00000,   0.00000,   0.04000  )

     Band symmetry, C_1 (1)     point group:

     e(  1 -  1) =     -5.81484  eV     1   --> A              
     e(  2 -  3) =     -5.81305  eV     2   -->   2 A              
     e(  4 -  4) =     -5.67590  eV     1   --> A              
     e(  5 -  5) =     -5.67476  eV     1   --> A              
     e(  6 -  6) =     -0.48650  eV     1   --> A              
     e(  7 -  7) =     18.59521  eV     1   --> A              
     e(  8 -  9) =     18.62622  eV     2   -->   2 A              
     e( 10 - 10) =     21.32156  eV     1   --> A              
     e( 11 - 11) =     22.67235  eV     1   --> A              
     e( 12 - 13) =     23.82508  eV     2   -->   2 A              

 **************************************************************************

 **************************************************************************

                    xk=(   0.00000,   0.00000,   0.06000  )

     Band symmetry, C_1 (1)     point group:

     e(  1 -  1) =     -5.81564  eV     1   --> A              
     e(  2 -  3) =     -5.81163  eV     2   -->   2 A              
     e(  4 -  4) =     -5.67672  eV     1   --> A              
     e(  5 -  5) =     -5.67416  eV     1   --> A              
     e(  6 -  6) =     -0.47369  eV     1   --> A              
     e(  7 -  7) =     18.49843  eV     1   --> A              
     e(  8 -  9) =     18.56496  eV     2   -->   2 A              
     e( 10 - 10) =     21.25960  eV     1   --> A              
     e( 11 - 11) =     22.78144  eV     1   --> A              
     e( 12 - 13) =     23.90324  eV     2   -->   2 A              

 **************************************************************************

 **************************************************************************

                    xk=(   0.00000,   0.00000,   0.08000  )

     Band symmetry, C_1 (1)     point group:

     e(  1 -  1) =     -5.81677  eV     1   --> A              
     e(  2 -  3) =     -5.80965  eV     2   -->   2 A              
     e(  4 -  4) =     -5.67787  eV     1   --> A              
     e(  5 -  5) =     -5.67332  eV     1   --> A              
     e(  6 -  6) =     -0.45575  eV     1   --> A              
     e(  7 -  7) =     18.37091  eV     1   --> A              
     e(  8 -  9) =     18.48227  eV     2   -->   2 A              
     e( 10 - 10) =     21.17915  eV     1   --> A              
     e( 11 - 11) =     22.92368  eV     1   --> A              
     e( 12 - 13) =     24.00934  eV     2   -->   2 A              

 **************************************************************************

 **************************************************************************

                    xk=(   0.00000,   0.00000,   0.10000  )

     Band symmetry, C_1 (1)     point group:

     e(  1 -  1) =     -5.81821  eV     1   --> A              
     e(  2 -  3) =     -5.80711  eV     2   -->   2 A              
     e(  4 -  4) =     -5.67936  eV     1   --> A              
     e(  5 -  5) =     -5.67225  eV     1   --> A              
     e(  6 -  6) =     -0.43269  eV     1   --> A              
     e(  7 -  7) =     18.21828  eV     1   --> A              
     e(  8 -  9) =     18.38068  eV     2   -->   2 A              
     e( 10 - 10) =     21.08455  eV     1   --> A              
     e( 11 - 11) =     23.08953  eV     1   --> A              
     e( 12 - 13) =     24.14101  eV     2   -->   2 A              

 **************************************************************************

 **************************************************************************

                    xk=(   0.00000,   0.00000,   0.12000  )

     Band symmetry, C_1 (1)     point group:

     e(  1 -  1) =     -5.81995  eV     1   --> A              
     e(  2 -  3) =     -5.80403  eV     2   -->   2 A              
     e(  4 -  4) =     -5.68117  eV     1   --> A              
     e(  5 -  5) =     -5.67096  eV     1   --> A              
     e(  6 -  6) =     -0.40451  eV     1   --> A              
     e(  7 -  7) =     18.04573  eV     1   --> A              
     e(  8 -  9) =     18.26292  eV     2   -->   2 A              
     e( 10 - 10) =     20.97965  eV     1   --> A              
     e( 11 - 11) =     23.26526  eV     1   --> A              
     e( 12 - 13) =     24.29551  eV     2   -->   2 A              

 **************************************************************************

 **************************************************************************

                    xk=(   0.00000,   0.00000,   0.14000  )

     Band symmetry, C_1 (1)     point group:

     e(  1 -  1) =     -5.82200  eV     1   --> A              
     e(  2 -  3) =     -5.80041  eV     2   -->   2 A              
     e(  4 -  4) =     -5.68332  eV     1   --> A              
     e(  5 -  5) =     -5.66943  eV     1   --> A              
     e(  6 -  6) =     -0.37119  eV     1   --> A              
     e(  7 -  7) =     17.85760  eV     1   --> A              
     e(  8 -  9) =     18.13168  eV     2   -->   2 A              
     e( 10 - 10) =     20.86762  eV     1   --> A              
     e( 11 - 11) =     23.42570  eV     1   --> A              
     e( 12 - 13) =     24.47016  eV     2   -->   2 A              

 **************************************************************************

 **************************************************************************

                    xk=(   0.00000,   0.00000,   0.16000  )

     Band symmetry, C_1 (1)     point group:

     e(  1 -  1) =     -5.82434  eV     1   --> A              
     e(  2 -  3) =     -5.79627  eV     2   -->   2 A              
     e(  4 -  4) =     -5.68579  eV     1   --> A              
     e(  5 -  5) =     -5.66769  eV     1   --> A              
     e(  6 -  6) =     -0.33274  eV     1   --> A              
     e(  7 -  7) =     17.65735  eV     1   --> A              
     e(  8 -  9) =     17.98940  eV     2   -->   2 A              
     e( 10 - 10) =     20.75094  eV     1   --> A              
     e( 11 - 11) =     23.51651  eV     1   --> A              
     e( 12 - 12) =     24.65671  eV     1   --> A              
     e( 13 - 13) =     24.66193  eV     1   --> A              

 **************************************************************************

 **************************************************************************

                    xk=(   0.00000,   0.00000,   0.18000  )

     Band symmetry, C_1 (1)     point group:

     e(  1 -  1) =     -5.82697  eV     1   --> A              
     e(  2 -  3) =     -5.79161  eV     2   -->   2 A              
     e(  4 -  4) =     -5.68859  eV     1   --> A              
     e(  5 -  5) =     -5.66574  eV     1   --> A              
     e(  6 -  6) =     -0.28916  eV     1   --> A              
     e(  7 -  7) =     17.44767  eV     1   --> A              
     e(  8 -  9) =     17.83841  eV     2   -->   2 A              
     e( 10 - 10) =     20.63155  eV     1   --> A              
     e( 11 - 11) =     23.45893  eV     1   --> A              
     e( 12 - 12) =     24.62797  eV     1   --> A              
     e( 13 - 13) =     24.86963  eV     1   --> A              

 **************************************************************************

 **************************************************************************

                    xk=(   0.00000,   0.00000,   0.20000  )

     Band symmetry, C_1 (1)     point group:

     e(  1 -  1) =     -5.82986  eV     1   --> A              
     e(  2 -  3) =     -5.78646  eV     2   -->   2 A              
     e(  4 -  4) =     -5.69172  eV     1   --> A              
     e(  5 -  5) =     -5.66358  eV     1   --> A              
     e(  6 -  6) =     -0.24046  eV     1   --> A              
     e(  7 -  7) =     17.23053  eV     1   --> A              
     e(  8 -  9) =     17.68064  eV     2   -->   2 A              
     e( 10 - 10) =     20.51088  eV     1   --> A              
     e( 11 - 11) =     23.25310  eV     1   --> A              
     e( 12 - 12) =     24.76531  eV     1   --> A              
     e( 13 - 13) =     25.09064  eV     1   --> A              

 **************************************************************************

 **************************************************************************

                    xk=(   0.00000,   0.00000,   0.22000  )

     Band symmetry, C_1 (1)     point group:

     e(  1 -  1) =     -5.83302  eV     1   --> A              
     e(  2 -  3) =     -5.78083  eV     2   -->   2 A              
     e(  4 -  4) =     -5.69516  eV     1   --> A              
     e(  5 -  5) =     -5.66123  eV     1   --> A              
     e(  6 -  6) =     -0.18662  eV     1   --> A              
     e(  7 -  7) =     17.00742  eV     1   --> A              
     e(  8 -  9) =     17.51774  eV     2   -->   2 A              
     e( 10 - 10) =     20.38996  eV     1   --> A              
     e( 11 - 11) =     22.97160  eV     1   --> A              
     e( 12 - 12) =     24.99417  eV     1   --> A              
     e( 13 - 13) =     25.31442  eV     1   --> A              

 **************************************************************************

 **************************************************************************

                    xk=(   0.00000,   0.00000,   0.24000  )

     Band symmetry, C_1 (1)     point group:

     e(  1 -  1) =     -5.83643  eV     1   --> A              
     e(  2 -  3) =     -5.77475  eV     2   -->   2 A              
     e(  4 -  4) =     -5.69893  eV     1   --> A              
     e(  5 -  5) =     -5.65869  eV     1   --> A              
     e(  6 -  6) =     -0.12766  eV     1   --> A              
     e(  7 -  7) =     16.77936  eV     1   --> A              
     e(  8 -  9) =     17.35128  eV     2   -->   2 A              
     e( 10 - 10) =     20.26981  eV     1   --> A              
     e( 11 - 11) =     22.66062  eV     1   --> A              
     e( 12 - 12) =     25.26810  eV     1   --> A              
     e( 13 - 13) =     25.54008  eV     1   --> A              

 **************************************************************************

 **************************************************************************

                    xk=(   0.00000,   0.00000,   0.26000  )

     Band symmetry, C_1 (1)     point group:

     e(  1 -  1) =     -5.84007  eV     1   --> A              
     e(  2 -  3) =     -5.76822  eV     2   -->   2 A              
     e(  4 -  4) =     -5.70301  eV     1   --> A              
     e(  5 -  5) =     -5.65597  eV     1   --> A              
     e(  6 -  6) =     -0.06359  eV     1   --> A              
     e(  7 -  7) =     16.54710  eV     1   --> A              
     e(  8 -  9) =     17.18247  eV     2   -->   2 A              
     e( 10 - 10) =     20.15098  eV     1   --> A              
     e( 11 - 11) =     22.33986  eV     1   --> A              
     e( 12 - 12) =     25.56756  eV     1   --> A              
     e( 13 - 13) =     25.78623  eV     1   --> A              

 **************************************************************************

 **************************************************************************

                    xk=(   0.00000,   0.00000,   0.28000  )

     Band symmetry, C_1 (1)     point group:

     e(  1 -  1) =     -5.84393  eV     1   --> A              
     e(  2 -  3) =     -5.76127  eV     2   -->   2 A              
     e(  4 -  4) =     -5.70739  eV     1   --> A              
     e(  5 -  5) =     -5.65309  eV     1   --> A              
     e(  6 -  6) =      0.00560  eV     1   --> A              
     e(  7 -  7) =     16.31113  eV     1   --> A              
     e(  8 -  9) =     17.01230  eV     2   -->   2 A              
     e( 10 - 10) =     20.03395  eV     1   --> A              
     e( 11 - 11) =     22.01790  eV     1   --> A              
     e( 12 - 12) =     25.88379  eV     1   --> A              
     e( 13 - 13) =     26.02386  eV     1   --> A              

 **************************************************************************

 **************************************************************************

                    xk=(   0.00000,   0.00000,   0.30000  )

     Band symmetry, C_1 (1)     point group:

     e(  1 -  1) =     -5.84799  eV     1   --> A              
     e(  2 -  3) =     -5.75394  eV     2   -->   2 A              
     e(  4 -  4) =     -5.71206  eV     1   --> A              
     e(  5 -  5) =     -5.65005  eV     1   --> A              
     e(  6 -  6) =      0.07989  eV     1   --> A              
     e(  7 -  7) =     16.07176  eV     1   --> A              
     e(  8 -  9) =     16.84169  eV     2   -->   2 A              
     e( 10 - 10) =     19.91911  eV     1   --> A              
     e( 11 - 11) =     21.69942  eV     1   --> A              
     e( 12 - 12) =     26.21232  eV     1   --> A              
     e( 13 - 13) =     26.26760  eV     1   --> A              

 **************************************************************************

 **************************************************************************

                    xk=(   0.00000,   0.00000,   0.32000  )

     Band symmetry, C_1 (1)     point group:

     e(  1 -  1) =     -5.85224  eV     1   --> A              
     e(  2 -  3) =     -5.74623  eV     2   -->   2 A              
     e(  4 -  4) =     -5.71703  eV     1   --> A              
     e(  5 -  5) =     -5.64687  eV     1   --> A              
     e(  6 -  6) =      0.15926  eV     1   --> A              
     e(  7 -  7) =     15.82919  eV     1   --> A              
     e(  8 -  9) =     16.67143  eV     2   -->   2 A              
     e( 10 - 10) =     19.80676  eV     1   --> A              
     e( 11 - 11) =     21.38674  eV     1   --> A              
     e( 12 - 12) =     26.52276  eV     1   --> A              
     e( 13 - 13) =     26.55070  eV     1   --> A              

 **************************************************************************

 **************************************************************************

                    xk=(   0.00000,   0.00000,   0.34000  )

     Band symmetry, C_1 (1)     point group:

     e(  1 -  1) =     -5.85667  eV     1   --> A              
     e(  2 -  3) =     -5.73819  eV     2   -->   2 A              
     e(  4 -  4) =     -5.72227  eV     1   --> A              
     e(  5 -  5) =     -5.64356  eV     1   --> A              
     e(  6 -  6) =      0.24370  eV     1   --> A              
     e(  7 -  7) =     15.58351  eV     1   --> A              
     e(  8 -  9) =     16.50215  eV     2   -->   2 A              
     e( 10 - 10) =     19.69696  eV     1   --> A              
     e( 11 - 11) =     21.08169  eV     1   --> A              
     e( 12 - 12) =     26.78496  eV     1   --> A              
     e( 13 - 13) =     26.89074  eV     1   --> A              

 **************************************************************************

 **************************************************************************

                    xk=(   0.00000,   0.00000,   0.36000  )

     Band symmetry, C_1 (1)     point group:

     e(  1 -  1) =     -5.86124  eV     1   --> A              
     e(  2 -  3) =     -5.72983  eV     2   -->   2 A              
     e(  4 -  4) =     -5.72776  eV     1   --> A              
     e(  5 -  5) =     -5.64012  eV     1   --> A              
     e(  6 -  6) =      0.33318  eV     1   --> A              
     e(  7 -  7) =     15.33477  eV     1   --> A              
     e(  8 -  9) =     16.33448  eV     2   -->   2 A              
     e( 10 - 10) =     19.59021  eV     1   --> A              
     e( 11 - 11) =     20.78549  eV     1   --> A              
     e( 12 - 12) =     27.05389  eV     1   --> A              
     e( 13 - 13) =     27.16704  eV     1   --> A              

 **************************************************************************

 **************************************************************************

                    xk=(   0.00000,   0.00000,   0.38000  )

     Band symmetry, C_1 (1)     point group:

     e(  1 -  1) =     -5.86595  eV     1   --> A              
     e(  2 -  2) =     -5.73350  eV     1   --> A              
     e(  3 -  4) =     -5.72119  eV     2   -->   2 A              
     e(  5 -  5) =     -5.63659  eV     1   --> A              
     e(  6 -  6) =      0.42768  eV     1   --> A              
     e(  7 -  7) =     15.08300  eV     1   --> A              
     e(  8 -  9) =     16.16893  eV     2   -->   2 A              
     e( 10 - 10) =     19.48657  eV     1   --> A              
     e( 11 - 11) =     20.49908  eV     1   --> A              
     e( 12 - 12) =     27.32775  eV     1   --> A              
     e( 13 - 13) =     27.42827  eV     1   --> A              

 **************************************************************************

 **************************************************************************

                    xk=(   0.00000,   0.00000,   0.40000  )

     Band symmetry, C_1 (1)     point group:

     e(  1 -  1) =     -5.87078  eV     1   --> A              
     e(  2 -  2) =     -5.73946  eV     1   --> A              
     e(  3 -  4) =     -5.71230  eV     2   -->   2 A              
     e(  5 -  5) =     -5.63296  eV     1   --> A              
     e(  6 -  6) =      0.52715  eV     1   --> A              
     e(  7 -  7) =     14.82821  eV     1   --> A              
     e(  8 -  9) =     16.00577  eV     2   -->   2 A              
     e( 10 - 10) =     19.38598  eV     1   --> A              
     e( 11 - 11) =     20.22298  eV     1   --> A              
     e( 12 - 12) =     27.61817  eV     1   --> A              
     e( 13 - 13) =     27.61918  eV     1   --> A              

 **************************************************************************

 **************************************************************************

                    xk=(   0.00000,   0.00000,   0.42000  )

     Band symmetry, C_1 (1)     point group:

     e(  1 -  1) =     -5.87571  eV     1   --> A              
     e(  2 -  2) =     -5.74563  eV     1   --> A              
     e(  3 -  4) =     -5.70319  eV     2   -->   2 A              
     e(  5 -  5) =     -5.62925  eV     1   --> A              
     e(  6 -  6) =      0.63157  eV     1   --> A              
     e(  7 -  7) =     14.57044  eV     1   --> A              
     e(  8 -  9) =     15.84548  eV     2   -->   2 A              
     e( 10 - 10) =     19.28861  eV     1   --> A              
     e( 11 - 11) =     19.95775  eV     1   --> A              
     e( 12 - 13) =     27.76068  eV     2   -->   2 A              

 **************************************************************************

 **************************************************************************

                    xk=(   0.00000,   0.00000,   0.44000  )

     Band symmetry, C_1 (1)     point group:

     e(  1 -  1) =     -5.88071  eV     1   --> A              
     e(  2 -  2) =     -5.75198  eV     1   --> A              
     e(  3 -  4) =     -5.69390  eV     2   -->   2 A              
     e(  5 -  5) =     -5.62549  eV     1   --> A              
     e(  6 -  6) =      0.74088  eV     1   --> A              
     e(  7 -  7) =     14.30976  eV     1   --> A              
     e(  8 -  9) =     15.68839  eV     2   -->   2 A              
     e( 10 - 10) =     19.19450  eV     1   --> A              
     e( 11 - 11) =     19.70375  eV     1   --> A              
     e( 12 - 13) =     27.89580  eV     2   -->   2 A              

 **************************************************************************

 **************************************************************************

                    xk=(   0.00000,   0.00000,   0.46000  )

     Band symmetry, C_1 (1)     point group:

     e(  1 -  1) =     -5.88577  eV     1   --> A              
     e(  2 -  2) =     -5.75849  eV     1   --> A              
     e(  3 -  4) =     -5.68446  eV     2   -->   2 A              
     e(  5 -  5) =     -5.62167  eV     1   --> A              
     e(  6 -  6) =      0.85503  eV     1   --> A              
     e(  7 -  7) =     14.04629  eV     1   --> A              
     e(  8 -  9) =     15.53481  eV     2   -->   2 A              
     e( 10 - 10) =     19.10384  eV     1   --> A              
     e( 11 - 11) =     19.46139  eV     1   --> A              
     e( 12 - 13) =     28.03310  eV     2   -->   2 A              

 **************************************************************************

 **************************************************************************

                    xk=(   0.00000,   0.00000,   0.48000  )

     Band symmetry, C_1 (1)     point group:

     e(  1 -  1) =     -5.89086  eV     1   --> A              
     e(  2 -  2) =     -5.76514  eV     1   --> A              
     e(  3 -  4) =     -5.67490  eV     2   -->   2 A              
     e(  5 -  5) =     -5.61782  eV     1   --> A              
     e(  6 -  6) =      0.97396  eV     1   --> A              
     e(  7 -  7) =     13.78019  eV     1   --> A              
     e(  8 -  9) =     15.38500  eV     2   -->   2 A              
     e( 10 - 10) =     19.01641  eV     1   --> A              
     e( 11 - 11) =     19.23046  eV     1   --> A              
     e( 12 - 13) =     28.17439  eV     2   -->   2 A              

 **************************************************************************

 **************************************************************************

                    xk=(   0.00000,   0.00000,   0.50000  )

     Band symmetry, C_1 (1)     point group:

     e(  1 -  1) =     -5.89597  eV     1   --> A              
     e(  2 -  2) =     -5.77189  eV     1   --> A              
     e(  3 -  4) =     -5.66527  eV     2   -->   2 A              
     e(  5 -  5) =     -5.61396  eV     1   --> A              
     e(  6 -  6) =      1.09759  eV     1   --> A              
     e(  7 -  7) =     13.51168  eV     1   --> A              
     e(  8 -  9) =     15.23928  eV     2   -->   2 A              
     e( 10 - 10) =     18.93277  eV     1   --> A              
     e( 11 - 11) =     19.01126  eV     1   --> A              
     e( 12 - 13) =     28.32031  eV     2   -->   2 A              

 **************************************************************************

 **************************************************************************

                    xk=(   0.00000,   0.00000,   0.52000  )

     Band symmetry, C_1 (1)     point group:

     e(  1 -  1) =     -5.90109  eV     1   --> A              
     e(  2 -  2) =     -5.77872  eV     1   --> A              
     e(  3 -  4) =     -5.65560  eV     2   -->   2 A              
     e(  5 -  5) =     -5.61009  eV     1   --> A              
     e(  6 -  6) =      1.22584  eV     1   --> A              
     e(  7 -  7) =     13.24104  eV     1   --> A              
     e(  8 -  9) =     15.09773  eV     2   -->   2 A              
     e( 10 - 10) =     18.80348  eV     1   --> A              
     e( 11 - 11) =     18.85173  eV     1   --> A              
     e( 12 - 13) =     28.47073  eV     2   -->   2 A              

 **************************************************************************

 **************************************************************************

                    xk=(   0.00000,   0.00000,   0.54000  )

     Band symmetry, C_1 (1)     point group:

     e(  1 -  1) =     -5.90617  eV     1   --> A              
     e(  2 -  2) =     -5.78560  eV     1   --> A              
     e(  3 -  4) =     -5.64593  eV     2   -->   2 A              
     e(  5 -  5) =     -5.60624  eV     1   --> A              
     e(  6 -  6) =      1.35860  eV     1   --> A              
     e(  7 -  7) =     12.96860  eV     1   --> A              
     e(  8 -  9) =     14.96062  eV     2   -->   2 A              
     e( 10 - 10) =     18.60723  eV     1   --> A              
     e( 11 - 11) =     18.77448  eV     1   --> A              
     e( 12 - 13) =     28.62579  eV     2   -->   2 A              

 **************************************************************************

 **************************************************************************

                    xk=(   0.00000,   0.00000,   0.56000  )

     Band symmetry, C_1 (1)     point group:

     e(  1 -  1) =     -5.91122  eV     1   --> A              
     e(  2 -  2) =     -5.79250  eV     1   --> A              
     e(  3 -  4) =     -5.63629  eV     2   -->   2 A              
     e(  5 -  5) =     -5.60241  eV     1   --> A              
     e(  6 -  6) =      1.49576  eV     1   --> A              
     e(  7 -  7) =     12.69474  eV     1   --> A              
     e(  8 -  9) =     14.82815  eV     2   -->   2 A              
     e( 10 - 10) =     18.42225  eV     1   --> A              
     e( 11 - 11) =     18.70063  eV     1   --> A              
     e( 12 - 13) =     28.78538  eV     2   -->   2 A              

 **************************************************************************

 **************************************************************************

                    xk=(   0.00000,   0.00000,   0.58000  )

     Band symmetry, C_1 (1)     point group:

     e(  1 -  1) =     -5.91620  eV     1   --> A              
     e(  2 -  2) =     -5.79939  eV     1   --> A              
     e(  3 -  4) =     -5.62673  eV     2   -->   2 A              
     e(  5 -  5) =     -5.59863  eV     1   --> A              
     e(  6 -  6) =      1.63718  eV     1   --> A              
     e(  7 -  7) =     12.41989  eV     1   --> A              
     e(  8 -  9) =     14.70049  eV     2   -->   2 A              
     e( 10 - 10) =     18.24831  eV     1   --> A              
     e( 11 - 11) =     18.63018  eV     1   --> A              
     e( 12 - 13) =     28.94935  eV     2   -->   2 A              

 **************************************************************************

 **************************************************************************

                    xk=(   0.00000,   0.00000,   0.60000  )

     Band symmetry, C_1 (1)     point group:

     e(  1 -  1) =     -5.92110  eV     1   --> A              
     e(  2 -  2) =     -5.80624  eV     1   --> A              
     e(  3 -  4) =     -5.61729  eV     2   -->   2 A              
     e(  5 -  5) =     -5.59490  eV     1   --> A              
     e(  6 -  6) =      1.78271  eV     1   --> A              
     e(  7 -  7) =     12.14452  eV     1   --> A              
     e(  8 -  9) =     14.57779  eV     2   -->   2 A              
     e( 10 - 10) =     18.08514  eV     1   --> A              
     e( 11 - 11) =     18.56313  eV     1   --> A              
     e( 12 - 13) =     29.11753  eV     2   -->   2 A              

 **************************************************************************

 **************************************************************************

                    xk=(   0.00000,   0.00000,   0.62000  )

     Band symmetry, C_1 (1)     point group:

     e(  1 -  1) =     -5.92589  eV     1   --> A              
     e(  2 -  2) =     -5.81301  eV     1   --> A              
     e(  3 -  4) =     -5.60800  eV     2   -->   2 A              
     e(  5 -  5) =     -5.59125  eV     1   --> A              
     e(  6 -  6) =      1.93216  eV     1   --> A              
     e(  7 -  7) =     11.86915  eV     1   --> A              
     e(  8 -  9) =     14.46019  eV     2   -->   2 A              
     e( 10 - 10) =     17.93224  eV     1   --> A              
     e( 11 - 11) =     18.49946  eV     1   --> A              
     e( 12 - 13) =     29.28967  eV     2   -->   2 A              

 **************************************************************************

 **************************************************************************

                    xk=(   0.00000,   0.00000,   0.64000  )

     Band symmetry, C_1 (1)     point group:

     e(  1 -  1) =     -5.93057  eV     1   --> A              
     e(  2 -  2) =     -5.81967  eV     1   --> A              
     e(  3 -  4) =     -5.59891  eV     2   -->   2 A              
     e(  5 -  5) =     -5.58769  eV     1   --> A              
     e(  6 -  6) =      2.08532  eV     1   --> A              
     e(  7 -  7) =     11.59431  eV     1   --> A              
     e(  8 -  9) =     14.34783  eV     2   -->   2 A              
     e( 10 - 10) =     17.78952  eV     1   --> A              
     e( 11 - 11) =     18.43910  eV     1   --> A              
     e( 12 - 13) =     29.46547  eV     2   -->   2 A              

 **************************************************************************

 **************************************************************************

                    xk=(   0.00000,   0.00000,   0.66000  )

     Band symmetry, C_1 (1)     point group:

     e(  1 -  1) =     -5.93511  eV     1   --> A              
     e(  2 -  2) =     -5.82620  eV     1   --> A              
     e(  3 -  4) =     -5.59004  eV     2   -->   2 A              
     e(  5 -  5) =     -5.58423  eV     1   --> A              
     e(  6 -  6) =      2.24193  eV     1   --> A              
     e(  7 -  7) =     11.32061  eV     1   --> A              
     e(  8 -  9) =     14.24087  eV     2   -->   2 A              
     e( 10 - 10) =     17.65682  eV     1   --> A              
     e( 11 - 11) =     18.38217  eV     1   --> A              
     e( 12 - 13) =     29.64482  eV     2   -->   2 A              

 **************************************************************************

 **************************************************************************

                    xk=(   0.00000,   0.00000,   0.68000  )

     Band symmetry, C_1 (1)     point group:

     e(  1 -  1) =     -5.93949  eV     1   --> A              
     e(  2 -  2) =     -5.83255  eV     1   --> A              
     e(  3 -  4) =     -5.58145  eV     2   -->   2 A              
     e(  5 -  5) =     -5.58088  eV     1   --> A              
     e(  6 -  6) =      2.40170  eV     1   --> A              
     e(  7 -  7) =     11.04867  eV     1   --> A              
     e(  8 -  9) =     14.13940  eV     2   -->   2 A              
     e( 10 - 10) =     17.53362  eV     1   --> A              
     e( 11 - 11) =     18.32860  eV     1   --> A              
     e( 12 - 13) =     29.82727  eV     2   -->   2 A              

 **************************************************************************

 **************************************************************************

                    xk=(   0.00000,   0.00000,   0.70000  )

     Band symmetry, C_1 (1)     point group:

     e(  1 -  1) =     -5.94370  eV     1   --> A              
     e(  2 -  2) =     -5.83869  eV     1   --> A              
     e(  3 -  3) =     -5.57767  eV     1   --> A              
     e(  4 -  5) =     -5.57316  eV     2   -->   2 A              
     e(  6 -  6) =      2.56425  eV     1   --> A              
     e(  7 -  7) =     10.77916  eV     1   --> A              
     e(  8 -  9) =     14.04354  eV     2   -->   2 A              
     e( 10 - 10) =     17.41960  eV     1   --> A              
     e( 11 - 11) =     18.27836  eV     1   --> A              
     e( 12 - 13) =     30.01240  eV     2   -->   2 A              

 **************************************************************************

 **************************************************************************

                    xk=(   0.00000,   0.00000,   0.72000  )

     Band symmetry, C_1 (1)     point group:

     e(  1 -  1) =     -5.94772  eV     1   --> A              
     e(  2 -  2) =     -5.84460  eV     1   --> A              
     e(  3 -  3) =     -5.57459  eV     1   --> A              
     e(  4 -  5) =     -5.56521  eV     2   -->   2 A              
     e(  6 -  6) =      2.72916  eV     1   --> A              
     e(  7 -  7) =     10.51285  eV     1   --> A              
     e(  8 -  9) =     13.95340  eV     2   -->   2 A              
     e( 10 - 10) =     17.31500  eV     1   --> A              
     e( 11 - 11) =     18.23146  eV     1   --> A              
     e( 12 - 13) =     30.19976  eV     2   -->   2 A              

 **************************************************************************

 **************************************************************************

                    xk=(   0.00000,   0.00000,   0.74000  )

     Band symmetry, C_1 (1)     point group:

     e(  1 -  1) =     -5.95153  eV     1   --> A              
     e(  2 -  2) =     -5.85025  eV     1   --> A              
     e(  3 -  3) =     -5.57167  eV     1   --> A              
     e(  4 -  5) =     -5.55764  eV     2   -->   2 A              
     e(  6 -  6) =      2.89587  eV     1   --> A              
     e(  7 -  7) =     10.25052  eV     1   --> A              
     e(  8 -  9) =     13.86905  eV     2   -->   2 A              
     e( 10 - 10) =     17.21844  eV     1   --> A              
     e( 11 - 11) =     18.18786  eV     1   --> A              
     e( 12 - 13) =     30.38867  eV     2   -->   2 A              

 **************************************************************************

 **************************************************************************

                    xk=(   0.00000,   0.00000,   0.76000  )

     Band symmetry, C_1 (1)     point group:

     e(  1 -  1) =     -5.95512  eV     1   --> A              
     e(  2 -  2) =     -5.85561  eV     1   --> A              
     e(  3 -  3) =     -5.56892  eV     1   --> A              
     e(  4 -  5) =     -5.55049  eV     2   -->   2 A              
     e(  6 -  6) =      3.06374  eV     1   --> A              
     e(  7 -  7) =      9.99309  eV     1   --> A              
     e(  8 -  9) =     13.79060  eV     2   -->   2 A              
     e( 10 - 10) =     17.13017  eV     1   --> A              
     e( 11 - 11) =     18.14755  eV     1   --> A              
     e( 12 - 12) =     30.42933  eV     1   --> A              
     e( 13 - 13) =     30.57846  eV     1   --> A              

 **************************************************************************

 **************************************************************************

                    xk=(   0.00000,   0.00000,   0.78000  )

     Band symmetry, C_1 (1)     point group:

     e(  1 -  1) =     -5.95848  eV     1   --> A              
     e(  2 -  2) =     -5.86065  eV     1   --> A              
     e(  3 -  3) =     -5.56634  eV     1   --> A              
     e(  4 -  5) =     -5.54378  eV     2   -->   2 A              
     e(  6 -  6) =      3.23193  eV     1   --> A              
     e(  7 -  7) =      9.74164  eV     1   --> A              
     e(  8 -  9) =     13.71812  eV     2   -->   2 A              
     e( 10 - 10) =     17.04995  eV     1   --> A              
     e( 11 - 11) =     18.11058  eV     1   --> A              
     e( 12 - 12) =     30.45098  eV     1   --> A              
     e( 13 - 13) =     30.76816  eV     1   --> A              

 **************************************************************************

 **************************************************************************

                    xk=(   0.00000,   0.00000,   0.80000  )

     Band symmetry, C_1 (1)     point group:

     e(  1 -  1) =     -5.96159  eV     1   --> A              
     e(  2 -  2) =     -5.86534  eV     1   --> A              
     e(  3 -  3) =     -5.56395  eV     1   --> A              
     e(  4 -  5) =     -5.53754  eV     2   -->   2 A              
     e(  6 -  6) =      3.39946  eV     1   --> A              
     e(  7 -  7) =      9.49739  eV     1   --> A              
     e(  8 -  9) =     13.65170  eV     2   -->   2 A              
     e( 10 - 10) =     16.97750  eV     1   --> A              
     e( 11 - 11) =     18.07683  eV     1   --> A              
     e( 12 - 12) =     30.47138  eV     1   --> A              
     e( 13 - 13) =     30.95684  eV     1   --> A              

 **************************************************************************

 **************************************************************************

                    xk=(   0.00000,   0.00000,   0.82000  )

     Band symmetry, C_1 (1)     point group:

     e(  1 -  1) =     -5.96445  eV     1   --> A              
     e(  2 -  2) =     -5.86966  eV     1   --> A              
     e(  3 -  3) =     -5.56176  eV     1   --> A              
     e(  4 -  5) =     -5.53180  eV     2   -->   2 A              
     e(  6 -  6) =      3.56503  eV     1   --> A              
     e(  7 -  7) =      9.26182  eV     1   --> A              
     e(  8 -  9) =     13.59140  eV     2   -->   2 A              
     e( 10 - 10) =     16.91261  eV     1   --> A              
     e( 11 - 11) =     18.04634  eV     1   --> A              
     e( 12 - 12) =     30.49055  eV     1   --> A              
     e( 13 - 13) =     31.14305  eV     1   --> A              

 **************************************************************************

 **************************************************************************

                    xk=(   0.00000,   0.00000,   0.84000  )

     Band symmetry, C_1 (1)     point group:

     e(  1 -  1) =     -5.96703  eV     1   --> A              
     e(  2 -  2) =     -5.87359  eV     1   --> A              
     e(  3 -  3) =     -5.55978  eV     1   --> A              
     e(  4 -  5) =     -5.52660  eV     2   -->   2 A              
     e(  6 -  6) =      3.72700  eV     1   --> A              
     e(  7 -  7) =      9.03673  eV     1   --> A              
     e(  8 -  9) =     13.53727  eV     2   -->   2 A              
     e( 10 - 10) =     16.85470  eV     1   --> A              
     e( 11 - 11) =     18.01906  eV     1   --> A              
     e( 12 - 12) =     30.50832  eV     1   --> A              
     e( 13 - 13) =     31.32497  eV     1   --> A              

 **************************************************************************

 **************************************************************************

                    xk=(   0.00000,   0.00000,   0.86000  )

     Band symmetry, C_1 (1)     point group:

     e(  1 -  1) =     -5.96933  eV     1   --> A              
     e(  2 -  2) =     -5.87711  eV     1   --> A              
     e(  3 -  3) =     -5.55801  eV     1   --> A              
     e(  4 -  5) =     -5.52194  eV     2   -->   2 A              
     e(  6 -  6) =      3.88338  eV     1   --> A              
     e(  7 -  7) =      8.82433  eV     1   --> A              
     e(  8 -  9) =     13.48939  eV     2   -->   2 A              
     e( 10 - 10) =     16.80436  eV     1   --> A              
     e( 11 - 11) =     17.99505  eV     1   --> A              
     e( 12 - 12) =     30.52452  eV     1   --> A              
     e( 13 - 13) =     31.50055  eV     1   --> A              

 **************************************************************************

 **************************************************************************

                    xk=(   0.00000,   0.00000,   0.88000  )

     Band symmetry, C_1 (1)     point group:

     e(  1 -  1) =     -5.97135  eV     1   --> A              
     e(  2 -  2) =     -5.88020  eV     1   --> A              
     e(  3 -  3) =     -5.55646  eV     1   --> A              
     e(  4 -  5) =     -5.51787  eV     2   -->   2 A              
     e(  6 -  6) =      4.03156  eV     1   --> A              
     e(  7 -  7) =      8.62732  eV     1   --> A              
     e(  8 -  9) =     13.44779  eV     2   -->   2 A              
     e( 10 - 10) =     16.76105  eV     1   --> A              
     e( 11 - 11) =     17.97425  eV     1   --> A              
     e( 12 - 12) =     30.53895  eV     1   --> A              
     e( 13 - 13) =     31.66693  eV     1   --> A              

 **************************************************************************

 **************************************************************************

                    xk=(   0.00000,   0.00000,   0.90000  )

     Band symmetry, C_1 (1)     point group:

     e(  1 -  1) =     -5.97306  eV     1   --> A              
     e(  2 -  2) =     -5.88284  eV     1   --> A              
     e(  3 -  3) =     -5.55513  eV     1   --> A              
     e(  4 -  5) =     -5.51438  eV     2   -->   2 A              
     e(  6 -  6) =      4.16834  eV     1   --> A              
     e(  7 -  7) =      8.44901  eV     1   --> A              
     e(  8 -  9) =     13.41252  eV     2   -->   2 A              
     e( 10 - 10) =     16.72428  eV     1   --> A              
     e( 11 - 11) =     17.95667  eV     1   --> A              
     e( 12 - 12) =     30.55147  eV     1   --> A              
     e( 13 - 13) =     31.82061  eV     1   --> A              

 **************************************************************************

 **************************************************************************

                    xk=(   0.00000,   0.00000,   0.92000  )

     Band symmetry, C_1 (1)     point group:

     e(  1 -  1) =     -5.97447  eV     1   --> A              
     e(  2 -  2) =     -5.88502  eV     1   --> A              
     e(  3 -  3) =     -5.55404  eV     1   --> A              
     e(  4 -  5) =     -5.51151  eV     2   -->   2 A              
     e(  6 -  6) =      4.28987  eV     1   --> A              
     e(  7 -  7) =      8.29338  eV     1   --> A              
     e(  8 -  9) =     13.38361  eV     2   -->   2 A              
     e( 10 - 10) =     16.69466  eV     1   --> A              
     e( 11 - 11) =     17.94267  eV     1   --> A              
     e( 12 - 12) =     30.56195  eV     1   --> A              
     e( 13 - 13) =     31.95735  eV     1   --> A              

 **************************************************************************

 **************************************************************************

                    xk=(   0.00000,   0.00000,   0.94000  )

     Band symmetry, C_1 (1)     point group:

     e(  1 -  1) =     -5.97558  eV     1   --> A              
     e(  2 -  2) =     -5.88673  eV     1   --> A              
     e(  3 -  3) =     -5.55319  eV     1   --> A              
     e(  4 -  5) =     -5.50926  eV     2   -->   2 A              
     e(  6 -  6) =      4.39169  eV     1   --> A              
     e(  7 -  7) =      8.16495  eV     1   --> A              
     e(  8 -  9) =     13.36110  eV     2   -->   2 A              
     e( 10 - 10) =     16.67170  eV     1   --> A              
     e( 11 - 11) =     17.93150  eV     1   --> A              
     e( 12 - 12) =     30.57021  eV     1   --> A              
     e( 13 - 13) =     32.07208  eV     1   --> A              

 **************************************************************************

 **************************************************************************

                    xk=(   0.00000,   0.00000,   0.96000  )

     Band symmetry, C_1 (1)     point group:

     e(  1 -  1) =     -5.97637  eV     1   --> A              
     e(  2 -  2) =     -5.88795  eV     1   --> A              
     e(  3 -  3) =     -5.55258  eV     1   --> A              
     e(  4 -  5) =     -5.50765  eV     2   -->   2 A              
     e(  6 -  6) =      4.46908  eV     1   --> A              
     e(  7 -  7) =      8.06852  eV     1   --> A              
     e(  8 -  9) =     13.34500  eV     2   -->   2 A              
     e( 10 - 10) =     16.65536  eV     1   --> A              
     e( 11 - 11) =     17.92352  eV     1   --> A              
     e( 12 - 12) =     30.57620  eV     1   --> A              
     e( 13 - 13) =     32.15944  eV     1   --> A              

 **************************************************************************

 **************************************************************************

                    xk=(   0.00000,   0.00000,   0.98000  )

     Band symmetry, C_1 (1)     point group:

     e(  1 -  1) =     -5.97685  eV     1   --> A              
     e(  2 -  2) =     -5.88869  eV     1   --> A              
     e(  3 -  3) =     -5.55221  eV     1   --> A              
     e(  4 -  5) =     -5.50668  eV     2   -->   2 A              
     e(  6 -  6) =      4.51766  eV     1   --> A              
     e(  7 -  7) =      8.00850  eV     1   --> A              
     e(  8 -  9) =     13.33534  eV     2   -->   2 A              
     e( 10 - 10) =     16.64557  eV     1   --> A              
     e( 11 - 11) =     17.91874  eV     1   --> A              
     e( 12 - 12) =     30.57981  eV     1   --> A              
     e( 13 - 13) =     32.21437  eV     1   --> A              

 **************************************************************************

 **************************************************************************

                    xk=(   0.00000,   0.00000,   1.00000  )

     Band symmetry, C_1 (1)     point group:

     e(  1 -  1) =     -5.97701  eV     1   --> A              
     e(  2 -  2) =     -5.88893  eV     1   --> A              
     e(  3 -  3) =     -5.55209  eV     1   --> A              
     e(  4 -  5) =     -5.50635  eV     2   -->   2 A              
     e(  6 -  6) =      4.53424  eV     1   --> A              
     e(  7 -  7) =      7.98810  eV     1   --> A              
     e(  8 -  9) =     13.33211  eV     2   -->   2 A              
     e( 10 - 10) =     16.64231  eV     1   --> A              
     e( 11 - 11) =     17.91714  eV     1   --> A              
     e( 12 - 12) =     30.58103  eV     1   --> A              
     e( 13 - 13) =     32.23314  eV     1   --> A              

 **************************************************************************

 **************************************************************************

                    xk=(   0.00000,   0.01000,   1.00000  )

     Band symmetry, C_1 (1)     point group:

     e(  1 -  1) =     -5.97690  eV     1   --> A              
     e(  2 -  2) =     -5.88887  eV     1   --> A              
     e(  3 -  3) =     -5.55215  eV     1   --> A              
     e(  4 -  4) =     -5.50648  eV     1   --> A              
     e(  5 -  5) =     -5.50635  eV     1   --> A              
     e(  6 -  6) =      4.53434  eV     1   --> A              
     e(  7 -  7) =      7.98891  eV     1   --> A              
     e(  8 -  9) =     13.32876  eV     2   -->   2 A              
     e( 10 - 10) =     16.64736  eV     1   --> A              
     e( 11 - 11) =     17.92137  eV     1   --> A              
     e( 12 - 12) =     30.57717  eV     1   --> A              
     e( 13 - 13) =     32.22088  eV     1   --> A              

 **************************************************************************

 **************************************************************************

                    xk=(   0.00000,   0.02000,   1.00000  )

     Band symmetry, C_1 (1)     point group:

     e(  1 -  1) =     -5.97659  eV     1   --> A              
     e(  2 -  2) =     -5.88867  eV     1   --> A              
     e(  3 -  3) =     -5.55231  eV     1   --> A              
     e(  4 -  4) =     -5.50687  eV     1   --> A              
     e(  5 -  5) =     -5.50635  eV     1   --> A              
     e(  6 -  6) =      4.53464  eV     1   --> A              
     e(  7 -  7) =      7.99135  eV     1   --> A              
     e(  8 -  8) =     13.31876  eV     1   --> A              
     e(  9 -  9) =     13.31914  eV     1   --> A              
     e( 10 - 10) =     16.66244  eV     1   --> A              
     e( 11 - 11) =     17.93402  eV     1   --> A              
     e( 12 - 12) =     30.56548  eV     1   --> A              
     e( 13 - 13) =     32.18351  eV     1   --> A              

 **************************************************************************

 **************************************************************************

                    xk=(   0.00000,   0.03000,   1.00000  )

     Band symmetry, C_1 (1)     point group:

     e(  1 -  1) =     -5.97607  eV     1   --> A              
     e(  2 -  2) =     -5.88834  eV     1   --> A              
     e(  3 -  3) =     -5.55259  eV     1   --> A              
     e(  4 -  4) =     -5.50752  eV     1   --> A              
     e(  5 -  5) =     -5.50635  eV     1   --> A              
     e(  6 -  6) =      4.53514  eV     1   --> A              
     e(  7 -  7) =      7.99540  eV     1   --> A              
     e(  8 -  8) =     13.30220  eV     1   --> A              
     e(  9 -  9) =     13.30316  eV     1   --> A              
     e( 10 - 10) =     16.68735  eV     1   --> A              
     e( 11 - 11) =     17.95498  eV     1   --> A              
     e( 12 - 12) =     30.54562  eV     1   --> A              
     e( 13 - 13) =     32.12303  eV     1   --> A              

 **************************************************************************

 **************************************************************************

                    xk=(   0.00000,   0.04000,   1.00000  )

     Band symmetry, C_1 (1)     point group:

     e(  1 -  1) =     -5.97534  eV     1   --> A              
     e(  2 -  2) =     -5.88788  eV     1   --> A              
     e(  3 -  3) =     -5.55298  eV     1   --> A              
     e(  4 -  4) =     -5.50842  eV     1   --> A              
     e(  5 -  5) =     -5.50635  eV     1   --> A              
     e(  6 -  6) =      4.53583  eV     1   --> A              
     e(  7 -  7) =      8.00106  eV     1   --> A              
     e(  8 -  8) =     13.27929  eV     1   --> A              
     e(  9 -  9) =     13.28122  eV     1   --> A              
     e( 10 - 10) =     16.72181  eV     1   --> A              
     e( 11 - 11) =     17.98407  eV     1   --> A              
     e( 12 - 12) =     30.51706  eV     1   --> A              
     e( 13 - 13) =     32.04104  eV     1   --> A              

 **************************************************************************

 **************************************************************************

                    xk=(   0.00000,   0.05000,   1.00000  )

     Band symmetry, C_1 (1)     point group:

     e(  1 -  1) =     -5.97440  eV     1   --> A              
     e(  2 -  2) =     -5.88729  eV     1   --> A              
     e(  3 -  3) =     -5.55348  eV     1   --> A              
     e(  4 -  4) =     -5.50958  eV     1   --> A              
     e(  5 -  5) =     -5.50635  eV     1   --> A              
     e(  6 -  6) =      4.53672  eV     1   --> A              
     e(  7 -  7) =      8.00835  eV     1   --> A              
     e(  8 -  8) =     13.25024  eV     1   --> A              
     e(  9 -  9) =     13.25370  eV     1   --> A              
     e( 10 - 10) =     16.76532  eV     1   --> A              
     e( 11 - 11) =     18.02097  eV     1   --> A              
     e( 12 - 12) =     30.47912  eV     1   --> A              
     e( 13 - 13) =     31.93970  eV     1   --> A              

 **************************************************************************

 **************************************************************************

                    xk=(   0.00000,   0.06000,   1.00000  )

     Band symmetry, C_1 (1)     point group:

     e(  1 -  1) =     -5.97325  eV     1   --> A              
     e(  2 -  2) =     -5.88657  eV     1   --> A              
     e(  3 -  3) =     -5.55409  eV     1   --> A              
     e(  4 -  4) =     -5.51099  eV     1   --> A              
     e(  5 -  5) =     -5.50635  eV     1   --> A              
     e(  6 -  6) =      4.53780  eV     1   --> A              
     e(  7 -  7) =      8.01725  eV     1   --> A              
     e(  8 -  8) =     13.21537  eV     1   --> A              
     e(  9 -  9) =     13.22107  eV     1   --> A              
     e( 10 - 10) =     16.81761  eV     1   --> A              
     e( 11 - 11) =     18.06536  eV     1   --> A              
     e( 12 - 12) =     30.43104  eV     1   --> A              
     e( 13 - 13) =     31.82145  eV     1   --> A              

 **************************************************************************

 **************************************************************************

                    xk=(   0.00000,   0.07000,   1.00000  )

     Band symmetry, C_1 (1)     point group:

     e(  1 -  1) =     -5.97190  eV     1   --> A              
     e(  2 -  2) =     -5.88573  eV     1   --> A              
     e(  3 -  3) =     -5.55481  eV     1   --> A              
     e(  4 -  4) =     -5.51266  eV     1   --> A              
     e(  5 -  5) =     -5.50635  eV     1   --> A              
     e(  6 -  6) =      4.53907  eV     1   --> A              
     e(  7 -  7) =      8.02776  eV     1   --> A              
     e(  8 -  8) =     13.17499  eV     1   --> A              
     e(  9 -  9) =     13.18384  eV     1   --> A              
     e( 10 - 10) =     16.87808  eV     1   --> A              
     e( 11 - 11) =     18.11720  eV     1   --> A              
     e( 12 - 12) =     30.37213  eV     1   --> A              
     e( 13 - 13) =     31.68861  eV     1   --> A              

 **************************************************************************

 **************************************************************************

                    xk=(   0.00000,   0.08000,   1.00000  )

     Band symmetry, C_1 (1)     point group:

     e(  1 -  1) =     -5.97034  eV     1   --> A              
     e(  2 -  2) =     -5.88476  eV     1   --> A              
     e(  3 -  3) =     -5.55563  eV     1   --> A              
     e(  4 -  4) =     -5.51458  eV     1   --> A              
     e(  5 -  5) =     -5.50635  eV     1   --> A              
     e(  6 -  6) =      4.54053  eV     1   --> A              
     e(  7 -  7) =      8.03988  eV     1   --> A              
     e(  8 -  8) =     13.12947  eV     1   --> A              
     e(  9 -  9) =     13.14252  eV     1   --> A              
     e( 10 - 10) =     16.94622  eV     1   --> A              
     e( 11 - 11) =     18.17594  eV     1   --> A              
     e( 12 - 12) =     30.30183  eV     1   --> A              
     e( 13 - 13) =     31.54332  eV     1   --> A              

 **************************************************************************

 **************************************************************************

                    xk=(   0.00000,   0.09000,   1.00000  )

     Band symmetry, C_1 (1)     point group:

     e(  1 -  1) =     -5.96857  eV     1   --> A              
     e(  2 -  2) =     -5.88366  eV     1   --> A              
     e(  3 -  3) =     -5.55656  eV     1   --> A              
     e(  4 -  4) =     -5.51674  eV     1   --> A              
     e(  5 -  5) =     -5.50635  eV     1   --> A              
     e(  6 -  6) =      4.54216  eV     1   --> A              
     e(  7 -  7) =      8.05360  eV     1   --> A              
     e(  8 -  8) =     13.07919  eV     1   --> A              
     e(  9 -  9) =     13.09764  eV     1   --> A              
     e( 10 - 10) =     17.02148  eV     1   --> A              
     e( 11 - 11) =     18.24122  eV     1   --> A              
     e( 12 - 12) =     30.21985  eV     1   --> A              
     e( 13 - 13) =     31.38753  eV     1   --> A              

 **************************************************************************

 **************************************************************************

                    xk=(   0.00000,   0.10000,   1.00000  )

     Band symmetry, C_1 (1)     point group:

     e(  1 -  1) =     -5.96661  eV     1   --> A              
     e(  2 -  2) =     -5.88244  eV     1   --> A              
     e(  3 -  3) =     -5.55760  eV     1   --> A              
     e(  4 -  4) =     -5.51915  eV     1   --> A              
     e(  5 -  5) =     -5.50635  eV     1   --> A              
     e(  6 -  6) =      4.54397  eV     1   --> A              
     e(  7 -  7) =      8.06892  eV     1   --> A              
     e(  8 -  8) =     13.02452  eV     1   --> A              
     e(  9 -  9) =     13.04972  eV     1   --> A              
     e( 10 - 10) =     17.10336  eV     1   --> A              
     e( 11 - 11) =     18.31266  eV     1   --> A              
     e( 12 - 12) =     30.12626  eV     1   --> A              
     e( 13 - 13) =     31.22293  eV     1   --> A              

 **************************************************************************

 **************************************************************************

                    xk=(   0.00000,   0.11000,   1.00000  )

     Band symmetry, C_1 (1)     point group:

     e(  1 -  1) =     -5.96444  eV     1   --> A              
     e(  2 -  2) =     -5.88111  eV     1   --> A              
     e(  3 -  3) =     -5.55874  eV     1   --> A              
     e(  4 -  4) =     -5.52180  eV     1   --> A              
     e(  5 -  5) =     -5.50635  eV     1   --> A              
     e(  6 -  6) =      4.54594  eV     1   --> A              
     e(  7 -  7) =      8.08583  eV     1   --> A              
     e(  8 -  8) =     12.96582  eV     1   --> A              
     e(  9 -  9) =     12.99925  eV     1   --> A              
     e( 10 - 10) =     17.19128  eV     1   --> A              
     e( 11 - 11) =     18.38941  eV     1   --> A              
     e( 12 - 12) =     30.02140  eV     1   --> A              
     e( 13 - 13) =     31.05085  eV     1   --> A              

 **************************************************************************

 **************************************************************************

                    xk=(   0.00000,   0.12000,   1.00000  )

     Band symmetry, C_1 (1)     point group:

     e(  1 -  1) =     -5.96207  eV     1   --> A              
     e(  2 -  2) =     -5.87966  eV     1   --> A              
     e(  3 -  3) =     -5.55997  eV     1   --> A              
     e(  4 -  4) =     -5.52469  eV     1   --> A              
     e(  5 -  5) =     -5.50635  eV     1   --> A              
     e(  6 -  6) =      4.54808  eV     1   --> A              
     e(  7 -  7) =      8.10434  eV     1   --> A              
     e(  8 -  8) =     12.90351  eV     1   --> A              
     e(  9 -  9) =     12.94670  eV     1   --> A              
     e( 10 - 10) =     17.28494  eV     1   --> A              
     e( 11 - 11) =     18.47205  eV     1   --> A              
     e( 12 - 12) =     29.90613  eV     1   --> A              
     e( 13 - 13) =     30.87276  eV     1   --> A              

 **************************************************************************

 **************************************************************************

                    xk=(  -0.00000,   0.13000,   1.00000  )

     Band symmetry, C_1 (1)     point group:

     e(  1 -  1) =     -5.95950  eV     1   --> A              
     e(  2 -  2) =     -5.87809  eV     1   --> A              
     e(  3 -  3) =     -5.56131  eV     1   --> A              
     e(  4 -  4) =     -5.52782  eV     1   --> A              
     e(  5 -  5) =     -5.50634  eV     1   --> A              
     e(  6 -  6) =      4.55037  eV     1   --> A              
     e(  7 -  7) =      8.12443  eV     1   --> A              
     e(  8 -  8) =     12.83792  eV     1   --> A              
     e(  9 -  9) =     12.89248  eV     1   --> A              
     e( 10 - 10) =     17.38383  eV     1   --> A              
     e( 11 - 11) =     18.55973  eV     1   --> A              
     e( 12 - 12) =     29.78136  eV     1   --> A              
     e( 13 - 13) =     30.68960  eV     1   --> A              

 **************************************************************************

 **************************************************************************

                    xk=(   0.00000,   0.14000,   1.00000  )

     Band symmetry, C_1 (1)     point group:

     e(  1 -  1) =     -5.95674  eV     1   --> A              
     e(  2 -  2) =     -5.87641  eV     1   --> A              
     e(  3 -  3) =     -5.56274  eV     1   --> A              
     e(  4 -  4) =     -5.53117  eV     1   --> A              
     e(  5 -  5) =     -5.50634  eV     1   --> A              
     e(  6 -  6) =      4.55280  eV     1   --> A              
     e(  7 -  7) =      8.14610  eV     1   --> A              
     e(  8 -  8) =     12.76938  eV     1   --> A              
     e(  9 -  9) =     12.83700  eV     1   --> A              
     e( 10 - 10) =     17.48756  eV     1   --> A              
     e( 11 - 11) =     18.65214  eV     1   --> A              
     e( 12 - 12) =     29.64814  eV     1   --> A              
     e( 13 - 13) =     30.50224  eV     1   --> A              

 **************************************************************************

 **************************************************************************

                    xk=(  -0.00000,   0.15000,   1.00000  )

     Band symmetry, C_1 (1)     point group:

     e(  1 -  1) =     -5.95378  eV     1   --> A              
     e(  2 -  2) =     -5.87463  eV     1   --> A              
     e(  3 -  3) =     -5.56427  eV     1   --> A              
     e(  4 -  4) =     -5.53475  eV     1   --> A              
     e(  5 -  5) =     -5.50634  eV     1   --> A              
     e(  6 -  6) =      4.55538  eV     1   --> A              
     e(  7 -  7) =      8.16934  eV     1   --> A              
     e(  8 -  8) =     12.69823  eV     1   --> A              
     e(  9 -  9) =     12.78060  eV     1   --> A              
     e( 10 - 10) =     17.59577  eV     1   --> A              
     e( 11 - 11) =     18.74895  eV     1   --> A              
     e( 12 - 12) =     29.50758  eV     1   --> A              
     e( 13 - 13) =     30.31144  eV     1   --> A              

 **************************************************************************

 **************************************************************************

                    xk=(  -0.00000,   0.16000,   1.00000  )

     Band symmetry, C_1 (1)     point group:

     e(  1 -  1) =     -5.95062  eV     1   --> A              
     e(  2 -  2) =     -5.87275  eV     1   --> A              
     e(  3 -  3) =     -5.56589  eV     1   --> A              
     e(  4 -  4) =     -5.53855  eV     1   --> A              
     e(  5 -  5) =     -5.50634  eV     1   --> A              
     e(  6 -  6) =      4.55808  eV     1   --> A              
     e(  7 -  7) =      8.19414  eV     1   --> A              
     e(  8 -  8) =     12.62480  eV     1   --> A              
     e(  9 -  9) =     12.72363  eV     1   --> A              
     e( 10 - 10) =     17.70824  eV     1   --> A              
     e( 11 - 11) =     18.85030  eV     1   --> A              
     e( 12 - 12) =     29.36074  eV     1   --> A              
     e( 13 - 13) =     30.11792  eV     1   --> A              

 **************************************************************************

 **************************************************************************

                    xk=(  -0.00000,   0.17000,   1.00000  )

     Band symmetry, C_1 (1)     point group:

     e(  1 -  1) =     -5.94728  eV     1   --> A              
     e(  2 -  2) =     -5.87076  eV     1   --> A              
     e(  3 -  3) =     -5.56759  eV     1   --> A              
     e(  4 -  4) =     -5.54257  eV     1   --> A              
     e(  5 -  5) =     -5.50634  eV     1   --> A              
     e(  6 -  6) =      4.56090  eV     1   --> A              
     e(  7 -  7) =      8.22050  eV     1   --> A              
     e(  8 -  8) =     12.54930  eV     1   --> A              
     e(  9 -  9) =     12.66635  eV     1   --> A              
     e( 10 - 10) =     17.82444  eV     1   --> A              
     e( 11 - 11) =     18.95503  eV     1   --> A              
     e( 12 - 12) =     29.20857  eV     1   --> A              
     e( 13 - 13) =     29.92201  eV     1   --> A              

 **************************************************************************

 **************************************************************************

                    xk=(  -0.00000,   0.18000,   1.00000  )

     Band symmetry, C_1 (1)     point group:

     e(  1 -  1) =     -5.94375  eV     1   --> A              
     e(  2 -  2) =     -5.86869  eV     1   --> A              
     e(  3 -  3) =     -5.56938  eV     1   --> A              
     e(  4 -  4) =     -5.54680  eV     1   --> A              
     e(  5 -  5) =     -5.50634  eV     1   --> A              
     e(  6 -  6) =      4.56382  eV     1   --> A              
     e(  7 -  7) =      8.24840  eV     1   --> A              
     e(  8 -  8) =     12.47201  eV     1   --> A              
     e(  9 -  9) =     12.60903  eV     1   --> A              
     e( 10 - 10) =     17.94423  eV     1   --> A              
     e( 11 - 11) =     19.06335  eV     1   --> A              
     e( 12 - 12) =     29.05193  eV     1   --> A              
     e( 13 - 13) =     29.72427  eV     1   --> A              

 **************************************************************************

 **************************************************************************

                    xk=(  -0.00000,   0.19000,   1.00000  )

     Band symmetry, C_1 (1)     point group:

     e(  1 -  1) =     -5.94003  eV     1   --> A              
     e(  2 -  2) =     -5.86652  eV     1   --> A              
     e(  3 -  3) =     -5.57125  eV     1   --> A              
     e(  4 -  4) =     -5.55124  eV     1   --> A              
     e(  5 -  5) =     -5.50634  eV     1   --> A              
     e(  6 -  6) =      4.56685  eV     1   --> A              
     e(  7 -  7) =      8.27785  eV     1   --> A              
     e(  8 -  8) =     12.39317  eV     1   --> A              
     e(  9 -  9) =     12.55190  eV     1   --> A              
     e( 10 - 10) =     18.06732  eV     1   --> A              
     e( 11 - 11) =     19.17484  eV     1   --> A              
     e( 12 - 12) =     28.89157  eV     1   --> A              
     e( 13 - 13) =     29.52506  eV     1   --> A              

 **************************************************************************

 **************************************************************************

                    xk=(  -0.00000,   0.20000,   1.00000  )

     Band symmetry, C_1 (1)     point group:

     e(  1 -  1) =     -5.93613  eV     1   --> A              
     e(  2 -  2) =     -5.86427  eV     1   --> A              
     e(  3 -  3) =     -5.57319  eV     1   --> A              
     e(  4 -  4) =     -5.55588  eV     1   --> A              
     e(  5 -  5) =     -5.50634  eV     1   --> A              
     e(  6 -  6) =      4.56996  eV     1   --> A              
     e(  7 -  7) =      8.30883  eV     1   --> A              
     e(  8 -  8) =     12.31305  eV     1   --> A              
     e(  9 -  9) =     12.49521  eV     1   --> A              
     e( 10 - 10) =     18.19364  eV     1   --> A              
     e( 11 - 11) =     19.29002  eV     1   --> A              
     e( 12 - 12) =     28.72815  eV     1   --> A              
     e( 13 - 13) =     29.32482  eV     1   --> A              

 **************************************************************************

 **************************************************************************

                    xk=(  -0.00000,   0.21000,   1.00000  )

     Band symmetry, C_1 (1)     point group:

     e(  1 -  1) =     -5.93205  eV     1   --> A              
     e(  2 -  2) =     -5.86194  eV     1   --> A              
     e(  3 -  3) =     -5.57521  eV     1   --> A              
     e(  4 -  4) =     -5.56071  eV     1   --> A              
     e(  5 -  5) =     -5.50633  eV     1   --> A              
     e(  6 -  6) =      4.57315  eV     1   --> A              
     e(  7 -  7) =      8.34132  eV     1   --> A              
     e(  8 -  8) =     12.23177  eV     1   --> A              
     e(  9 -  9) =     12.43911  eV     1   --> A              
     e( 10 - 10) =     18.32280  eV     1   --> A              
     e( 11 - 11) =     19.40773  eV     1   --> A              
     e( 12 - 12) =     28.56220  eV     1   --> A              
     e( 13 - 13) =     29.12373  eV     1   --> A              

 **************************************************************************

 **************************************************************************

                    xk=(  -0.00000,   0.22000,   1.00000  )

     Band symmetry, C_1 (1)     point group:

     e(  1 -  1) =     -5.92780  eV     1   --> A              
     e(  2 -  2) =     -5.85955  eV     1   --> A              
     e(  3 -  3) =     -5.57729  eV     1   --> A              
     e(  4 -  4) =     -5.56573  eV     1   --> A              
     e(  5 -  5) =     -5.50633  eV     1   --> A              
     e(  6 -  6) =      4.57640  eV     1   --> A              
     e(  7 -  7) =      8.37533  eV     1   --> A              
     e(  8 -  8) =     12.14955  eV     1   --> A              
     e(  9 -  9) =     12.38374  eV     1   --> A              
     e( 10 - 10) =     18.45462  eV     1   --> A              
     e( 11 - 11) =     19.52814  eV     1   --> A              
     e( 12 - 12) =     28.39418  eV     1   --> A              
     e( 13 - 13) =     28.92195  eV     1   --> A              

 **************************************************************************

 **************************************************************************

                    xk=(  -0.00000,   0.23000,   1.00000  )

     Band symmetry, C_1 (1)     point group:

     e(  1 -  1) =     -5.92337  eV     1   --> A              
     e(  2 -  2) =     -5.85708  eV     1   --> A              
     e(  3 -  3) =     -5.57944  eV     1   --> A              
     e(  4 -  4) =     -5.57093  eV     1   --> A              
     e(  5 -  5) =     -5.50633  eV     1   --> A              
     e(  6 -  6) =      4.57970  eV     1   --> A              
     e(  7 -  7) =      8.41084  eV     1   --> A              
     e(  8 -  8) =     12.06655  eV     1   --> A              
     e(  9 -  9) =     12.32935  eV     1   --> A              
     e( 10 - 10) =     18.58905  eV     1   --> A              
     e( 11 - 11) =     19.65119  eV     1   --> A              
     e( 12 - 12) =     28.22451  eV     1   --> A              
     e( 13 - 13) =     28.72001  eV     1   --> A              

 **************************************************************************

 **************************************************************************

                    xk=(   0.00000,   0.24000,   1.00000  )

     Band symmetry, C_1 (1)     point group:

     e(  1 -  1) =     -5.91877  eV     1   --> A              
     e(  2 -  2) =     -5.85456  eV     1   --> A              
     e(  3 -  3) =     -5.58164  eV     1   --> A              
     e(  4 -  4) =     -5.57631  eV     1   --> A              
     e(  5 -  5) =     -5.50633  eV     1   --> A              
     e(  6 -  6) =      4.58304  eV     1   --> A              
     e(  7 -  7) =      8.44784  eV     1   --> A              
     e(  8 -  8) =     11.98293  eV     1   --> A              
     e(  9 -  9) =     12.27604  eV     1   --> A              
     e( 10 - 10) =     18.72587  eV     1   --> A              
     e( 11 - 11) =     19.77667  eV     1   --> A              
     e( 12 - 12) =     28.05351  eV     1   --> A              
     e( 13 - 13) =     28.51797  eV     1   --> A              

 **************************************************************************

 **************************************************************************

                    xk=(   0.00000,   0.25000,   1.00000  )

     Band symmetry, C_1 (1)     point group:

     e(  1 -  1) =     -5.91400  eV     1   --> A              
     e(  2 -  2) =     -5.85198  eV     1   --> A              
     e(  3 -  3) =     -5.58389  eV     1   --> A              
     e(  4 -  4) =     -5.58185  eV     1   --> A              
     e(  5 -  5) =     -5.50633  eV     1   --> A              
     e(  6 -  6) =      4.58641  eV     1   --> A              
     e(  7 -  7) =      8.48631  eV     1   --> A              
     e(  8 -  8) =     11.89883  eV     1   --> A              
     e(  9 -  9) =     12.22392  eV     1   --> A              
     e( 10 - 10) =     18.86489  eV     1   --> A              
     e( 11 - 11) =     19.90446  eV     1   --> A              
     e( 12 - 12) =     27.88143  eV     1   --> A              
     e( 13 - 13) =     28.31590  eV     1   --> A              

 **************************************************************************

 **************************************************************************

                    xk=(   0.00000,   0.26000,   1.00000  )

     Band symmetry, C_1 (1)     point group:

     e(  1 -  1) =     -5.90908  eV     1   --> A              
     e(  2 -  2) =     -5.84936  eV     1   --> A              
     e(  3 -  3) =     -5.58756  eV     1   --> A              
     e(  4 -  4) =     -5.58619  eV     1   --> A              
     e(  5 -  5) =     -5.50633  eV     1   --> A              
     e(  6 -  6) =      4.58979  eV     1   --> A              
     e(  7 -  7) =      8.52626  eV     1   --> A              
     e(  8 -  8) =     11.81437  eV     1   --> A              
     e(  9 -  9) =     12.17312  eV     1   --> A              
     e( 10 - 10) =     19.00603  eV     1   --> A              
     e( 11 - 11) =     20.03442  eV     1   --> A              
     e( 12 - 12) =     27.70859  eV     1   --> A              
     e( 13 - 13) =     28.11422  eV     1   --> A              

 **************************************************************************

 **************************************************************************

                    xk=(   0.00000,   0.27000,   1.00000  )

     Band symmetry, C_1 (1)     point group:

     e(  1 -  1) =     -5.90399  eV     1   --> A              
     e(  2 -  2) =     -5.84670  eV     1   --> A              
     e(  3 -  3) =     -5.59343  eV     1   --> A              
     e(  4 -  4) =     -5.58852  eV     1   --> A              
     e(  5 -  5) =     -5.50633  eV     1   --> A              
     e(  6 -  6) =      4.59317  eV     1   --> A              
     e(  7 -  7) =      8.56767  eV     1   --> A              
     e(  8 -  8) =     11.72975  eV     1   --> A              
     e(  9 -  9) =     12.12378  eV     1   --> A              
     e( 10 - 10) =     19.14919  eV     1   --> A              
     e( 11 - 11) =     20.16694  eV     1   --> A              
     e( 12 - 12) =     27.53536  eV     1   --> A              
     e( 13 - 13) =     27.91299  eV     1   --> A              

 **************************************************************************

 **************************************************************************

                    xk=(   0.00000,   0.28000,   1.00000  )

     Band symmetry, C_1 (1)     point group:

     e(  1 -  1) =     -5.89874  eV     1   --> A              
     e(  2 -  2) =     -5.84401  eV     1   --> A              
[...]

 **************************************************************************

 **************************************************************************

                    xk=(   0.66000,   0.00000,   0.66000  )

     Band symmetry, C_1 (1)     point group:

     e(  1 -  1) =     -5.86697  eV     1   --> A              
     e(  2 -  2) =     -5.70644  eV     1   --> A              
     e(  3 -  3) =     -5.66955  eV     1   --> A              
     e(  4 -  4) =     -5.64581  eV     1   --> A              
     e(  5 -  5) =     -5.58102  eV     1   --> A              
     e(  6 -  6) =      4.04281  eV     1   --> A              
     e(  7 -  7) =      9.42560  eV     1   --> A              
     e(  8 -  8) =      9.78202  eV     1   --> A              
     e(  9 -  9) =     14.99295  eV     1   --> A              
     e( 10 - 10) =     18.26324  eV     1   --> A              
     e( 11 - 11) =     25.42293  eV     1   --> A              
     e( 12 - 12) =     26.77999  eV     1   --> A              
     e( 13 - 13) =     27.05708  eV     1   --> A              

 **************************************************************************

 **************************************************************************

                    xk=(   0.68000,   0.00000,   0.68000  )

     Band symmetry, C_1 (1)     point group:

     e(  1 -  1) =     -5.87396  eV     1   --> A              
     e(  2 -  2) =     -5.72374  eV     1   --> A              
     e(  3 -  3) =     -5.65566  eV     1   --> A              
     e(  4 -  4) =     -5.63817  eV     1   --> A              
     e(  5 -  5) =     -5.57306  eV     1   --> A              
     e(  6 -  6) =      4.16810  eV     1   --> A              
     e(  7 -  7) =      9.49273  eV     1   --> A              
     e(  8 -  8) =      9.58438  eV     1   --> A              
     e(  9 -  9) =     14.81346  eV     1   --> A              
     e( 10 - 10) =     18.13847  eV     1   --> A              
     e( 11 - 11) =     24.81085  eV     1   --> A              
     e( 12 - 12) =     27.12610  eV     1   --> A              
     e( 13 - 13) =     27.27651  eV     1   --> A              

 **************************************************************************

 **************************************************************************

                    xk=(   0.70000,   0.00000,   0.70000  )

     Band symmetry, C_1 (1)     point group:

     e(  1 -  1) =     -5.88101  eV     1   --> A              
     e(  2 -  2) =     -5.74141  eV     1   --> A              
     e(  3 -  3) =     -5.64166  eV     1   --> A              
     e(  4 -  4) =     -5.63037  eV     1   --> A              
     e(  5 -  5) =     -5.56544  eV     1   --> A              
     e(  6 -  6) =      4.27330  eV     1   --> A              
     e(  7 -  7) =      9.39716  eV     1   --> A              
     e(  8 -  8) =      9.59987  eV     1   --> A              
     e(  9 -  9) =     14.64241  eV     1   --> A              
     e( 10 - 10) =     18.02128  eV     1   --> A              
     e( 11 - 11) =     24.20375  eV     1   --> A              
     e( 12 - 12) =     27.47874  eV     1   --> A              
     e( 13 - 13) =     27.50278  eV     1   --> A              

 **************************************************************************

 **************************************************************************

                    xk=(   0.72000,   0.00000,   0.72000  )

     Band symmetry, C_1 (1)     point group:

     e(  1 -  1) =     -5.88814  eV     1   --> A              
     e(  2 -  2) =     -5.75916  eV     1   --> A              
     e(  3 -  3) =     -5.62768  eV     1   --> A              
     e(  4 -  4) =     -5.62249  eV     1   --> A              
     e(  5 -  5) =     -5.55820  eV     1   --> A              
     e(  6 -  6) =      4.35861  eV     1   --> A              
     e(  7 -  7) =      9.22063  eV     1   --> A              
     e(  8 -  8) =      9.74607  eV     1   --> A              
     e(  9 -  9) =     14.48030  eV     1   --> A              
     e( 10 - 10) =     17.91139  eV     1   --> A              
     e( 11 - 11) =     23.60362  eV     1   --> A              
     e( 12 - 12) =     27.73561  eV     1   --> A              
     e( 13 - 13) =     27.83766  eV     1   --> A              

 **************************************************************************

 **************************************************************************

                    xk=(   0.74000,   0.00000,   0.74000  )

     Band symmetry, C_1 (1)     point group:

     e(  1 -  1) =     -5.89538  eV     1   --> A              
     e(  2 -  2) =     -5.77667  eV     1   --> A              
     e(  3 -  3) =     -5.61463  eV     1   --> A              
     e(  4 -  4) =     -5.61384  eV     1   --> A              
     e(  5 -  5) =     -5.55136  eV     1   --> A              
     e(  6 -  6) =      4.42516  eV     1   --> A              
     e(  7 -  7) =      9.05502  eV     1   --> A              
     e(  8 -  8) =      9.92931  eV     1   --> A              
     e(  9 -  9) =     14.32756  eV     1   --> A              
     e( 10 - 10) =     17.80850  eV     1   --> A              
     e( 11 - 11) =     23.01213  eV     1   --> A              
     e( 12 - 12) =     27.97440  eV     1   --> A              
     e( 13 - 13) =     28.20255  eV     1   --> A              

 **************************************************************************

 **************************************************************************

                    xk=(   0.76000,   0.00000,   0.76000  )

     Band symmetry, C_1 (1)     point group:

     e(  1 -  1) =     -5.90277  eV     1   --> A              
     e(  2 -  2) =     -5.79362  eV     1   --> A              
     e(  3 -  3) =     -5.60687  eV     1   --> A              
     e(  4 -  4) =     -5.60029  eV     1   --> A              
     e(  5 -  5) =     -5.54494  eV     1   --> A              
     e(  6 -  6) =      4.47482  eV     1   --> A              
     e(  7 -  7) =      8.90058  eV     1   --> A              
     e(  8 -  8) =     10.14667  eV     1   --> A              
     e(  9 -  9) =     14.18460  eV     1   --> A              
     e( 10 - 10) =     17.71214  eV     1   --> A              
     e( 11 - 11) =     22.43079  eV     1   --> A              
     e( 12 - 12) =     28.21849  eV     1   --> A              
     e( 13 - 13) =     28.57294  eV     1   --> A              

 **************************************************************************

 **************************************************************************

                    xk=(   0.78000,   0.00000,   0.78000  )

     Band symmetry, C_1 (1)     point group:

     e(  1 -  1) =     -5.91035  eV     1   --> A              
     e(  2 -  2) =     -5.80970  eV     1   --> A              
     e(  3 -  3) =     -5.59931  eV     1   --> A              
     e(  4 -  4) =     -5.58716  eV     1   --> A              
     e(  5 -  5) =     -5.53896  eV     1   --> A              
     e(  6 -  6) =      4.50998  eV     1   --> A              
     e(  7 -  7) =      8.75749  eV     1   --> A              
     e(  8 -  8) =     10.39456  eV     1   --> A              
     e(  9 -  9) =     14.05174  eV     1   --> A              
     e( 10 - 10) =     17.62205  eV     1   --> A              
     e( 11 - 11) =     21.86117  eV     1   --> A              
     e( 12 - 12) =     28.46687  eV     1   --> A              
     e( 13 - 13) =     28.94806  eV     1   --> A              

 **************************************************************************

 **************************************************************************

                    xk=(   0.80000,   0.00000,   0.80000  )

     Band symmetry, C_1 (1)     point group:

     e(  1 -  1) =     -5.91815  eV     1   --> A              
     e(  2 -  2) =     -5.82458  eV     1   --> A              
     e(  3 -  3) =     -5.59203  eV     1   --> A              
     e(  4 -  4) =     -5.57459  eV     1   --> A              
     e(  5 -  5) =     -5.53344  eV     1   --> A              
     e(  6 -  6) =      4.53317  eV     1   --> A              
     e(  7 -  7) =      8.62601  eV     1   --> A              
     e(  8 -  8) =     10.66898  eV     1   --> A              
     e(  9 -  9) =     13.92935  eV     1   --> A              
     e( 10 - 10) =     17.53710  eV     1   --> A              
     e( 11 - 11) =     21.30558  eV     1   --> A              
     e( 12 - 12) =     28.71833  eV     1   --> A              
     e( 13 - 13) =     29.32723  eV     1   --> A              

 **************************************************************************

 **************************************************************************

                    xk=(   0.82000,   0.00000,   0.82000  )

     Band symmetry, C_1 (1)     point group:

     e(  1 -  1) =     -5.92617  eV     1   --> A              
     e(  2 -  2) =     -5.83800  eV     1   --> A              
     e(  3 -  3) =     -5.58513  eV     1   --> A              
     e(  4 -  4) =     -5.56272  eV     1   --> A              
     e(  5 -  5) =     -5.52839  eV     1   --> A              
     e(  6 -  6) =      4.54691  eV     1   --> A              
     e(  7 -  7) =      8.50634  eV     1   --> A              
     e(  8 -  8) =     10.96548  eV     1   --> A              
     e(  9 -  9) =     13.81770  eV     1   --> A              
     e( 10 - 10) =     17.45640  eV     1   --> A              
     e( 11 - 11) =     20.76635  eV     1   --> A              
     e( 12 - 12) =     28.97120  eV     1   --> A              
     e( 13 - 13) =     29.70933  eV     1   --> A              

 **************************************************************************

 **************************************************************************

                    xk=(   0.84000,   0.00000,   0.84000  )

     Band symmetry, C_1 (1)     point group:

     e(  1 -  1) =     -5.93434  eV     1   --> A              
     e(  2 -  2) =     -5.84977  eV     1   --> A              
     e(  3 -  3) =     -5.57870  eV     1   --> A              
     e(  4 -  4) =     -5.55168  eV     1   --> A              
     e(  5 -  5) =     -5.52384  eV     1   --> A              
     e(  6 -  6) =      4.55354  eV     1   --> A              
     e(  7 -  7) =      8.39867  eV     1   --> A              
     e(  8 -  8) =     11.27941  eV     1   --> A              
     e(  9 -  9) =     13.71709  eV     1   --> A              
     e( 10 - 10) =     17.37845  eV     1   --> A              
     e( 11 - 11) =     20.24781  eV     1   --> A              
     e( 12 - 12) =     29.22325  eV     1   --> A              
     e( 13 - 13) =     30.09296  eV     1   --> A              

 **************************************************************************

 **************************************************************************

                    xk=(   0.86000,   0.00000,   0.86000  )

     Band symmetry, C_1 (1)     point group:

     e(  1 -  1) =     -5.94251  eV     1   --> A              
     e(  2 -  2) =     -5.85981  eV     1   --> A              
     e(  3 -  3) =     -5.57280  eV     1   --> A              
     e(  4 -  4) =     -5.54161  eV     1   --> A              
     e(  5 -  5) =     -5.51979  eV     1   --> A              
     e(  6 -  6) =      4.55508  eV     1   --> A              
     e(  7 -  7) =      8.30320  eV     1   --> A              
     e(  8 -  8) =     11.60539  eV     1   --> A              
     e(  9 -  9) =     13.62773  eV     1   --> A              
     e( 10 - 10) =     17.30082  eV     1   --> A              
     e( 11 - 11) =     19.75460  eV     1   --> A              
     e( 12 - 12) =     29.47156  eV     1   --> A              
     e( 13 - 13) =     30.47576  eV     1   --> A              

 **************************************************************************

 **************************************************************************

                    xk=(   0.88000,   0.00000,   0.88000  )

     Band symmetry, C_1 (1)     point group:

     e(  1 -  1) =     -5.95043  eV     1   --> A              
     e(  2 -  2) =     -5.86814  eV     1   --> A              
     e(  3 -  3) =     -5.56753  eV     1   --> A              
     e(  4 -  4) =     -5.53261  eV     1   --> A              
     e(  5 -  5) =     -5.51625  eV     1   --> A              
     e(  6 -  6) =      4.55330  eV     1   --> A              
     e(  7 -  7) =      8.22009  eV     1   --> A              
     e(  8 -  8) =     11.93724  eV     1   --> A              
     e(  9 -  9) =     13.54986  eV     1   --> A              
     e( 10 - 10) =     17.22000  eV     1   --> A              
     e( 11 - 11) =     19.29501  eV     1   --> A              
     e( 12 - 12) =     29.71194  eV     1   --> A              
     e( 13 - 13) =     30.85481  eV     1   --> A              

 **************************************************************************

 **************************************************************************

                    xk=(   0.90000,   0.00000,   0.90000  )

     Band symmetry, C_1 (1)     point group:

     e(  1 -  1) =     -5.95780  eV     1   --> A              
     e(  2 -  2) =     -5.87487  eV     1   --> A              
     e(  3 -  3) =     -5.56295  eV     1   --> A              
     e(  4 -  4) =     -5.52480  eV     1   --> A              
     e(  5 -  5) =     -5.51324  eV     1   --> A              
     e(  6 -  6) =      4.54961  eV     1   --> A              
     e(  7 -  7) =      8.14949  eV     1   --> A              
     e(  8 -  8) =     12.26701  eV     1   --> A              
     e(  9 -  9) =     13.48366  eV     1   --> A              
     e( 10 - 10) =     17.13082  eV     1   --> A              
     e( 11 - 11) =     18.88013  eV     1   --> A              
     e( 12 - 12) =     29.93917  eV     1   --> A              
     e( 13 - 13) =     31.20962  eV     1   --> A              

 **************************************************************************

 **************************************************************************

                    xk=(   0.92000,   0.00000,   0.92000  )

     Band symmetry, C_1 (1)     point group:

     e(  1 -  1) =     -5.96432  eV     1   --> A              
     e(  2 -  2) =     -5.88014  eV     1   --> A              
     e(  3 -  3) =     -5.55911  eV     1   --> A              
     e(  4 -  4) =     -5.51827  eV     1   --> A              
     e(  5 -  5) =     -5.51077  eV     1   --> A              
     e(  6 -  6) =      4.54517  eV     1   --> A              
     e(  7 -  7) =      8.09154  eV     1   --> A              
     e(  8 -  8) =     12.58403  eV     1   --> A              
     e(  9 -  9) =     13.42927  eV     1   --> A              
     e( 10 - 10) =     17.02712  eV     1   --> A              
     e( 11 - 11) =     18.52617  eV     1   --> A              
     e( 12 - 12) =     30.14604  eV     1   --> A              
     e( 13 - 13) =     31.52508  eV     1   --> A              

 **************************************************************************

 **************************************************************************

                    xk=(   0.94000,   0.00000,   0.94000  )

     Band symmetry, C_1 (1)     point group:

     e(  1 -  1) =     -5.96970  eV     1   --> A              
     e(  2 -  2) =     -5.88407  eV     1   --> A              
     e(  3 -  3) =     -5.55607  eV     1   --> A              
     e(  4 -  4) =     -5.51311  eV     1   --> A              
     e(  5 -  5) =     -5.50884  eV     1   --> A              
     e(  6 -  6) =      4.54085  eV     1   --> A              
     e(  7 -  7) =      8.04636  eV     1   --> A              
     e(  8 -  8) =     12.87296  eV     1   --> A              
     e(  9 -  9) =     13.38684  eV     1   --> A              
     e( 10 - 10) =     16.90679  eV     1   --> A              
     e( 11 - 11) =     18.24932  eV     1   --> A              
     e( 12 - 12) =     30.32377  eV     1   --> A              
     e( 13 - 13) =     31.80533  eV     1   --> A              

 **************************************************************************

 **************************************************************************

                    xk=(   0.96000,   0.00000,   0.96000  )

     Band symmetry, C_1 (1)     point group:

     e(  1 -  1) =     -5.97371  eV     1   --> A              
     e(  2 -  2) =     -5.88680  eV     1   --> A              
     e(  3 -  3) =     -5.55387  eV     1   --> A              
     e(  4 -  4) =     -5.50937  eV     1   --> A              
     e(  5 -  5) =     -5.50746  eV     1   --> A              
     e(  6 -  6) =      4.53732  eV     1   --> A              
     e(  7 -  7) =      8.01402  eV     1   --> A              
     e(  8 -  8) =     13.11222  eV     1   --> A              
     e(  9 -  9) =     13.35646  eV     1   --> A              
     e( 10 - 10) =     16.78137  eV     1   --> A              
     e( 11 - 11) =     18.05880  eV     1   --> A              
     e( 12 - 12) =     30.46206  eV     1   --> A              
     e( 13 - 13) =     32.03134  eV     1   --> A              

 **************************************************************************

 **************************************************************************

                    xk=(   0.98000,   0.00000,   0.98000  )

     Band symmetry, C_1 (1)     point group:

     e(  1 -  1) =     -5.97617  eV     1   --> A              
     e(  2 -  2) =     -5.88840  eV     1   --> A              
     e(  3 -  3) =     -5.55254  eV     1   --> A              
     e(  4 -  4) =     -5.50711  eV     1   --> A              
     e(  5 -  5) =     -5.50663  eV     1   --> A              
     e(  6 -  6) =      4.53503  eV     1   --> A              
     e(  7 -  7) =      7.99459  eV     1   --> A              
     e(  8 -  8) =     13.27420  eV     1   --> A              
     e(  9 -  9) =     13.33820  eV     1   --> A              
     e( 10 - 10) =     16.68119  eV     1   --> A              
     e( 11 - 11) =     17.95145  eV     1   --> A              
     e( 12 - 12) =     30.55051  eV     1   --> A              
     e( 13 - 13) =     32.18890  eV     1   --> A              

 **************************************************************************

 **************************************************************************

                    xk=(   1.00000,   0.00000,   1.00000  )

     Band symmetry, C_1 (1)     point group:

     e(  1 -  1) =     -5.97701  eV     1   --> A              
     e(  2 -  2) =     -5.88893  eV     1   --> A              
     e(  3 -  3) =     -5.55209  eV     1   --> A              
     e(  4 -  5) =     -5.50635  eV     2   -->   2 A              
     e(  6 -  6) =      4.53424  eV     1   --> A              
     e(  7 -  7) =      7.98810  eV     1   --> A              
     e(  8 -  9) =     13.33211  eV     2   -->   2 A              
     e( 10 - 10) =     16.64231  eV     1   --> A              
     e( 11 - 11) =     17.91714  eV     1   --> A              
     e( 12 - 12) =     30.58103  eV     1   --> A              
     e( 13 - 13) =     32.23314  eV     1   --> A              

 **************************************************************************

     BANDS        :      1.69s CPU      1.91s WALL


   This run was terminated on:  11:36:11  15Jun2021            

=------------------------------------------------------------------------------=
   JOB DONE.
=------------------------------------------------------------------------------=
