
             +---------------------------------------------------+
             |                                                   |
             |                   WANNIER90                       |
             |                                                   |
             +---------------------------------------------------+
             |                                                   |
             |        Welcome to the Maximally-Localized         |
             |        Generalized Wannier Functions code         |
             |            http://www.wannier.org                 |
             |                                                   |
             |                                                   |
             |  Wannier90 Developer Group:                       |
             |    Giovanni Pizzi    (EPFL)                       |
             |    Valerio Vitale    (Cambridge)                  |
             |    David Vanderbilt  (Rutgers University)         |
             |    Nicola Marzari    (EPFL)                       |
             |    Ivo Souza         (Universidad del Pais Vasco) |
             |    Arash A. Mostofi  (Imperial College London)    |
             |    Jonathan R. Yates (University of Oxford)       |
             |                                                   |
             |  For the full list of Wannier90 3.x authors,      |
             |  please check the code documentation and the      |
             |  README on the GitHub page of the code            |
             |                                                   |
             |                                                   |
             |  Please cite                                      |
             |                                                   |
             |  [ref] "Wannier90 as a community code:            |
             |        new features and applications",            |
             |        G. Pizzi et al., J. Phys. Cond. Matt. 32,  |
             |        165902 (2020).                             |
             |        http://doi.org/10.1088/1361-648X/ab51ff    |
             |                                                   |
             |  in any publications arising from the use of      |
             |  this code. For the method please cite            |
             |                                                   |
             |  [ref] "Maximally Localized Generalised Wannier   |
             |         Functions for Composite Energy Bands"     |
             |         N. Marzari and D. Vanderbilt              |
             |         Phys. Rev. B 56 12847 (1997)              |
             |                                                   |
             |  [ref] "Maximally Localized Wannier Functions     |
             |         for Entangled Energy Bands"               |
             |         I. Souza, N. Marzari and D. Vanderbilt    |
             |         Phys. Rev. B 65 035109 (2001)             |
             |                                                   |
             |                                                   |
             | Copyright (c) 1996-2020                           |
             |        The Wannier90 Developer Group and          |
             |        individual contributors                    |
             |                                                   |
             |      Release: 3.1.0        5th March    2020      |
             |                                                   |
             | This program is free software; you can            |
             | redistribute it and/or modify it under the terms  |
             | of the GNU General Public License as published by |
             | the Free Software Foundation; either version 2 of |
             | the License, or (at your option) any later version|
             |                                                   |
             | This program is distributed in the hope that it   |
             | will be useful, but WITHOUT ANY WARRANTY; without |
             | even the implied warranty of MERCHANTABILITY or   |
             | FITNESS FOR A PARTICULAR PURPOSE. See the GNU     |
             | General Public License for more details.          |
             |                                                   |
             | You should have received a copy of the GNU General|
             | Public License along with this program; if not,   |
             | write to the Free Software Foundation, Inc.,      |
             | 675 Mass Ave, Cambridge, MA 02139, USA.           |
             |                                                   |
             +---------------------------------------------------+
             |    Execution started on 15Jun2021 at 11:41:18     |
             +---------------------------------------------------+
 
 ******************************************************************************
 * -> Using CODATA 2006 constant values                                       *
 *    (http://physics.nist.gov/cuu/Constants/index.html)                      *
 * -> Using Bohr value from CODATA                                            *
 ******************************************************************************
 

 Running in serial (with serial executable)

                                    ------
                                    SYSTEM
                                    ------

                              Lattice Vectors (Ang)
                    a_1    -2.475359   0.000000   2.475359
                    a_2     0.000000   2.475359   2.475359
                    a_3    -2.475359   2.475359   0.000000

                   Unit Cell Volume:      30.33503  (Ang^3)

                        Reciprocal-Space Vectors (Ang^-1)
                    b_1    -1.269146  -1.269146   1.269146
                    b_2     1.269146   1.269146   1.269146
                    b_3    -1.269146   1.269146  -1.269146
  
 *----------------------------------------------------------------------------*
 |   Site       Fractional Coordinate          Cartesian Coordinate (Ang)     |
 +----------------------------------------------------------------------------+
 | Pb   1   0.00000   0.00000   0.00000   |    0.00000   0.00000   0.00000    |
 *----------------------------------------------------------------------------*
                                ------------
                                K-POINT GRID
                                ------------
  
             Grid size =  8 x  8 x  8      Total points =  512
  
  
 *---------------------------------- MAIN ------------------------------------*
 |  Number of Wannier Functions               :                 9             |
 |  Number of Objective Wannier Functions     :                 9             |
 |  Number of input Bloch states              :                13             |
 |  Output verbosity (1=low, 5=high)          :                 1             |
 |  Timing Level (1=low, 5=high)              :                 1             |
 |  Optimisation (0=memory, 3=speed)          :                 3             |
 |  Length Unit                               :               Ang             |
 |  Post-processing setup (write *.nnkp)      :                 F             |
 |  Using Gamma-only branch of algorithms     :                 F             |
 *----------------------------------------------------------------------------*
 *------------------------------- WANNIERISE ---------------------------------*
 |  Total number of iterations                :               200             |
 |  Number of CG steps before reset           :                 5             |
 |  Trial step length for line search         :             2.000             |
 |  Convergence tolerence                     :         0.100E-09             |
 |  Convergence window                        :                -1             |
 |  Iterations between writing output         :                 1             |
 |  Iterations between backing up to disk     :               100             |
 |  Write r^2_nm to file                      :                 F             |
 |  Write xyz WF centres to file              :                 F             |
 |  Write on-site energies <0n|H|0n> to file  :                 F             |
 |  Use guiding centre to control phases      :                 F             |
 |  Use phases for initial projections        :                 F             |
 *----------------------------------------------------------------------------*
 *------------------------------- DISENTANGLE --------------------------------*
 |  Using band disentanglement                :                 T             |
 |  Total number of iterations                :                 0             |
 |  Mixing ratio                              :             0.500             |
 |  Convergence tolerence                     :         1.000E-10             |
 |  Convergence window                        :                 3             |
 *----------------------------------------------------------------------------*
 *-------------------------------- PLOTTING ----------------------------------*
 |  Plotting interpolated bandstructure       :                 T             |
 |   Number of K-path sections                :                 5             |
 |   Divisions along first K-path section     :               100             |
 |   Output format                            :           gnuplot             |
 |   Output mode                              :               s-k             |
 *----------------------------------------------------------------------------*
 |   K-space path sections:                                                   |
 |    From: G       0.000  0.000  0.000     To: X       0.500  0.500  0.000   |
 |    From: X       0.500  0.500  0.000     To: W       0.500  0.750  0.250   |
 |    From: W       0.500  0.750  0.250     To: L       0.000  0.500  0.000   |
 |    From: L       0.000  0.500  0.000     To: G       0.000  0.000  0.000   |
 |    From: G       0.000  0.000  0.000     To: K       0.000  0.500 -0.500   |
 *----------------------------------------------------------------------------*
 Time to read parameters        0.050 (sec)

 *---------------------------------- K-MESH ----------------------------------*
 +----------------------------------------------------------------------------+
 |                    Distance to Nearest-Neighbour Shells                    |
 |                    ------------------------------------                    |
 |          Shell             Distance (Ang^-1)          Multiplicity         |
 |          -----             -----------------          ------------         |
 |             1                   0.274778                      8            |
 |             2                   0.317287                      6            |
 |             3                   0.448711                     12            |
 |             4                   0.526160                     24            |
 |             5                   0.549557                      8            |
 |             6                   0.634573                      6            |
 |             7                   0.691510                     24            |
 |             8                   0.709474                     24            |
 |             9                   0.777190                     24            |
 |            10                   0.824335                     32            |
 |            11                   0.897422                     12            |
 |            12                   0.938546                     48            |
 |            13                   0.951860                     30            |
 |            14                   1.003348                     24            |
 |            15                   1.040294                     24            |
 |            16                   1.052321                     24            |
 |            17                   1.099113                      8            |
 |            18                   1.132940                     48            |
 |            19                   1.143993                     24            |
 |            20                   1.187178                     48            |
 |            21                   1.218562                     72            |
 |            22                   1.269146                      6            |
 |            23                   1.298551                     24            |
 |            24                   1.308206                     48            |
 |            25                   1.346133                     36            |
 |            26                   1.373891                     56            |
 |            27                   1.383020                     24            |
 |            28                   1.418949                     24            |
 |            29                   1.445309                     72            |
 |            30                   1.453990                     48            |
 |            31                   1.488206                     24            |
 |            32                   1.513361                     48            |
 |            33                   1.554381                     24            |
 |            34                   1.578481                     72            |
 |            35                   1.586433                     30            |
 |            36                   1.617851                     72            |
 +----------------------------------------------------------------------------+
 | The b-vectors are chosen automatically                                     |
 | The following shells are used:   1                                         |
 +----------------------------------------------------------------------------+
 |                        Shell   # Nearest-Neighbours                        |
 |                        -----   --------------------                        |
 |                          1               8                                 |
 +----------------------------------------------------------------------------+
 | Completeness relation is fully satisfied [Eq. (B1), PRB 56, 12847 (1997)]  |
 +----------------------------------------------------------------------------+
 |                  b_k Vectors (Ang^-1) and Weights (Ang^2)                  |
 |                  ----------------------------------------                  |
 |            No.         b_k(x)      b_k(y)      b_k(z)        w_b           |
 |            ---        --------------------------------     --------        |
 |             1        -0.158643    0.158643   -0.158643     4.966684        |
 |             2         0.158643    0.158643    0.158643     4.966684        |
 |             3        -0.158643   -0.158643    0.158643     4.966684        |
 |             4        -0.158643    0.158643    0.158643     4.966684        |
 |             5         0.158643   -0.158643    0.158643     4.966684        |
 |             6        -0.158643   -0.158643   -0.158643     4.966684        |
 |             7         0.158643    0.158643   -0.158643     4.966684        |
 |             8         0.158643   -0.158643   -0.158643     4.966684        |
 +----------------------------------------------------------------------------+
 |                           b_k Directions (Ang^-1)                          |
 |                           -----------------------                          |
 |            No.           x           y           z                         |
 |            ---        --------------------------------                     |
 |             1        -0.158643    0.158643   -0.158643                     |
 |             2         0.158643    0.158643    0.158643                     |
 |             3        -0.158643   -0.158643    0.158643                     |
 |             4        -0.158643    0.158643    0.158643                     |
 +----------------------------------------------------------------------------+
  
 Time to get kmesh              0.728 (sec)
 *============================================================================*
 |                              MEMORY ESTIMATE                               |
 |         Maximum RAM allocated during each phase of the calculation         |
 *============================================================================*
 |                        Disentanglement           18.44 Mb                  |
 |                            Wannierise:           15.23 Mb                  |
 |                          plot_wannier:           15.23 Mb                  |
 *----------------------------------------------------------------------------*
  
 Starting a new Wannier90 calculation ...


 Reading overlaps from ex4.mmn    :  Created on 15Jun2021 at 11:41: 1

 Reading projections from ex4.amn :  Created on 15Jun2021 at 11:41: 1  with SCDM

 Time to read overlaps          0.725 (sec)

 *------------------------------- DISENTANGLE --------------------------------*
 +----------------------------------------------------------------------------+
 |                              Energy  Windows                               |
 |                              ---------------                               |
 |                   Outer:   -5.97701  to   32.23314  (eV)                   |
 |                   No frozen states were specified                          |
 +----------------------------------------------------------------------------+
   Number of target bands to extract:    9

                   Unitarised projection of Wannier functions                  
                   ------------------------------------------                  
   A_mn = <psi_m|g_n> --> S = A.A^+ --> U = S^-1/2.A
   In dis_project... done
   No inner window (linner = F)

                   Extraction of optimally-connected subspace                  
                   ------------------------------------------                  
 +---------------------------------------------------------------------+<-- DIS
 |  Iter     Omega_I(i-1)      Omega_I(i)      Delta (frac.)    Time   |<-- DIS
 +---------------------------------------------------------------------+<-- DIS

     <<< Warning: Maximum number of disentanglement iterations reached >>>
          <<< Disentanglement convergence criteria not satisfied >>>

        Final Omega_I     0.00000000 (Ang^2)

 +----------------------------------------------------------------------------+

 Time to disentangle bands      0.068 (sec)

 Writing checkpoint file ex4.chk... done


 *------------------------------- WANNIERISE ---------------------------------*
 +--------------------------------------------------------------------+<-- CONV
 | Iter  Delta Spread     RMS Gradient      Spread (Ang^2)      Time  |<-- CONV
 +--------------------------------------------------------------------+<-- CONV

 ------------------------------------------------------------------------------
 Initial State
  WF centre and spread    1  ( -0.011514,  0.469496, -0.065046 )     2.09834569
  WF centre and spread    2  ( -0.037573, -0.090601,  0.180121 )     1.01501949
  WF centre and spread    3  (  0.314410,  0.151018, -0.112870 )     1.34810771
  WF centre and spread    4  (  0.124333, -0.159204, -0.330179 )     1.51300283
  WF centre and spread    5  (  0.376773, -0.237649,  0.045150 )     1.47213104
  WF centre and spread    6  ( -0.286849, -0.048021, -0.326037 )     1.58643496
  WF centre and spread    7  ( -0.468480,  0.122758,  0.216711 )     2.15831487
  WF centre and spread    8  ( -0.166340, -0.418440,  0.009621 )     2.23884171
  WF centre and spread    9  (  0.143542,  0.212300,  0.392122 )     2.20747245
  Sum of centres and spreads ( -0.011699,  0.001659,  0.009593 )    15.63767077

      0     0.156E+02     0.0000000000       15.6376707653       0.00  <-- CONV
        O_D=      0.3268261 O_OD=      4.5587404 O_TOT=     15.6376708 <-- SPRD
 ------------------------------------------------------------------------------
 Cycle:      1
  WF centre and spread    1  ( -0.012530,  0.477282, -0.068478 )     1.84374800
  WF centre and spread    2  ( -0.035935, -0.093497,  0.182669 )     0.90638816
  WF centre and spread    3  (  0.315938,  0.150612, -0.113163 )     1.24796850
  WF centre and spread    4  (  0.125018, -0.159417, -0.331692 )     1.38429828
  WF centre and spread    5  (  0.380880, -0.240416,  0.045854 )     1.34338692
  WF centre and spread    6  ( -0.290458, -0.047590, -0.329867 )     1.41762769
  WF centre and spread    7  ( -0.471507,  0.123045,  0.217963 )     1.98699979
  WF centre and spread    8  ( -0.166900, -0.420166,  0.010338 )     2.02294841
  WF centre and spread    9  (  0.145409,  0.211126,  0.394485 )     1.96788779
  Sum of centres and spreads ( -0.010086,  0.000980,  0.008109 )    14.12125355

      1    -0.152E+01     0.7579841239       14.1212535547       0.04  <-- CONV
        O_D=      0.0889663 O_OD=      3.2801830 O_TOT=     14.1212536 <-- SPRD
 Delta: O_D= -0.2378599E+00 O_OD= -0.1278557E+01 O_TOT= -0.1516417E+01 <-- DLTA
 ------------------------------------------------------------------------------
 Cycle:      2
  WF centre and spread    1  ( -0.013003,  0.482612, -0.070751 )     1.76471268
  WF centre and spread    2  ( -0.034311, -0.095931,  0.184880 )     0.88121283
  WF centre and spread    3  (  0.317563,  0.150997, -0.114013 )     1.23276376
  WF centre and spread    4  (  0.125872, -0.159737, -0.333017 )     1.35535600
  WF centre and spread    5  (  0.383548, -0.242188,  0.046090 )     1.32038785
  WF centre and spread    6  ( -0.292772, -0.047795, -0.331904 )     1.37190332
  WF centre and spread    7  ( -0.474584,  0.123882,  0.219256 )     1.95128891
  WF centre and spread    8  ( -0.167676, -0.421823,  0.010413 )     1.96254014
  WF centre and spread    9  (  0.146771,  0.210800,  0.396319 )     1.89476961
  Sum of centres and spreads ( -0.008592,  0.000816,  0.007273 )    13.73493509

      2    -0.386E+00     0.3893823748       13.7349350940       0.08  <-- CONV
        O_D=      0.0364040 O_OD=      2.9464268 O_TOT=     13.7349351 <-- SPRD
 Delta: O_D= -0.5256225E-01 O_OD= -0.3337562E+00 O_TOT= -0.3863185E+00 <-- DLTA
 ------------------------------------------------------------------------------
 Cycle:      3
  WF centre and spread    1  ( -0.013364,  0.486988, -0.072497 )     1.73101236
  WF centre and spread    2  ( -0.032816, -0.097572,  0.186325 )     0.87053977
  WF centre and spread    3  (  0.319012,  0.151513, -0.114873 )     1.23053289
  WF centre and spread    4  (  0.126553, -0.159953, -0.334463 )     1.34547241
  WF centre and spread    5  (  0.385570, -0.243572,  0.046434 )     1.31675807
  WF centre and spread    6  ( -0.294598, -0.047908, -0.333635 )     1.35574049
  WF centre and spread    7  ( -0.477234,  0.124577,  0.220424 )     1.93639111
  WF centre and spread    8  ( -0.168440, -0.424012,  0.010546 )     1.93518467
  WF centre and spread    9  (  0.147976,  0.210887,  0.398326 )     1.86040589
  Sum of centres and spreads ( -0.007342,  0.000948,  0.006588 )    13.58203766

      3    -0.153E+00     0.2556955239       13.5820376618       0.11  <-- CONV
        O_D=      0.0202026 O_OD=      2.8097308 O_TOT=     13.5820377 <-- SPRD
 Delta: O_D= -0.1620140E-01 O_OD= -0.1366960E+00 O_TOT= -0.1528974E+00 <-- DLTA
 ------------------------------------------------------------------------------
 Cycle:      4
  WF centre and spread    1  ( -0.013797,  0.491371, -0.074334 )     1.71242239
  WF centre and spread    2  ( -0.031062, -0.098798,  0.187127 )     0.86405291
  WF centre and spread    3  (  0.320342,  0.152034, -0.115730 )     1.23149700
  WF centre and spread    4  (  0.127118, -0.160008, -0.336195 )     1.34011178
  WF centre and spread    5  (  0.387357, -0.244925,  0.046920 )     1.31969249
  WF centre and spread    6  ( -0.296325, -0.047851, -0.335464 )     1.34971408
  WF centre and spread    7  ( -0.479931,  0.125196,  0.221795 )     1.92496205
  WF centre and spread    8  ( -0.169294, -0.427046,  0.010944 )     1.91466136
  WF centre and spread    9  (  0.149373,  0.211148,  0.400910 )     1.83622848
  Sum of centres and spreads ( -0.006219,  0.001123,  0.005975 )    13.49334253

      4    -0.887E-01     0.1794704680       13.4933425342       0.15  <-- CONV
        O_D=      0.0101201 O_OD=      2.7311182 O_TOT=     13.4933425 <-- SPRD
 Delta: O_D= -0.1008251E-01 O_OD= -0.7861262E-01 O_TOT= -0.8869513E-01 <-- DLTA
 ------------------------------------------------------------------------------
 Cycle:      5
  WF centre and spread    1  ( -0.014228,  0.494559, -0.075885 )     1.70482836
  WF centre and spread    2  ( -0.029529, -0.099532,  0.187306 )     0.85963694
  WF centre and spread    3  (  0.321114,  0.152388, -0.116356 )     1.23334716
  WF centre and spread    4  (  0.127506, -0.159942, -0.337542 )     1.33800198
  WF centre and spread    5  (  0.388514, -0.245962,  0.047370 )     1.32390699
  WF centre and spread    6  ( -0.297559, -0.047643, -0.336858 )     1.34980935
  WF centre and spread    7  ( -0.481992,  0.125682,  0.222993 )     1.91751370
  WF centre and spread    8  ( -0.170000, -0.429715,  0.011463 )     1.90167725
  WF centre and spread    9  (  0.150596,  0.211426,  0.403105 )     1.82267908
  Sum of centres and spreads ( -0.005578,  0.001261,  0.005596 )    13.45140082

      5    -0.419E-01     0.1360075661       13.4514008173       0.19  <-- CONV
        O_D=      0.0053147 O_OD=      2.6939818 O_TOT=     13.4514008 <-- SPRD
 Delta: O_D= -0.4805379E-02 O_OD= -0.3713634E-01 O_TOT= -0.4194172E-01 <-- DLTA
 ------------------------------------------------------------------------------
 Cycle:      6
  WF centre and spread    1  ( -0.014756,  0.497416, -0.077565 )     1.70268730
  WF centre and spread    2  ( -0.027990, -0.100132,  0.187188 )     0.85560420
  WF centre and spread    3  (  0.321606,  0.152676, -0.116904 )     1.23536041
  WF centre and spread    4  (  0.127882, -0.159845, -0.338727 )     1.33777334
  WF centre and spread    5  (  0.389487, -0.246988,  0.047851 )     1.32863150
  WF centre and spread    6  ( -0.298723, -0.047308, -0.338180 )     1.35308177
  WF centre and spread    7  ( -0.483951,  0.126190,  0.224266 )     1.91181988
  WF centre and spread    8  ( -0.170741, -0.432291,  0.012114 )     1.89184187
  WF centre and spread    9  (  0.151902,  0.211744,  0.405262 )     1.81428227
  Sum of centres and spreads ( -0.005284,  0.001460,  0.005306 )    13.43108254

      6    -0.203E-01     0.0881700714       13.4310825372       0.23  <-- CONV
        O_D=      0.0041759 O_OD=      2.6748024 O_TOT=     13.4310825 <-- SPRD
 Delta: O_D= -0.1138854E-02 O_OD= -0.1917943E-01 O_TOT= -0.2031828E-01 <-- DLTA
 ------------------------------------------------------------------------------
 Cycle:      7
  WF centre and spread    1  ( -0.014983,  0.498385, -0.078279 )     1.70245235
  WF centre and spread    2  ( -0.027414, -0.100337,  0.187079 )     0.85336232
  WF centre and spread    3  (  0.321681,  0.152765, -0.117083 )     1.23512697
  WF centre and spread    4  (  0.128017, -0.159797, -0.339097 )     1.33747532
  WF centre and spread    5  (  0.389787, -0.247374,  0.048048 )     1.32966358
  WF centre and spread    6  ( -0.299173, -0.047148, -0.338677 )     1.35441056
  WF centre and spread    7  ( -0.484640,  0.126389,  0.224773 )     1.90876693
  WF centre and spread    8  ( -0.171039, -0.433169,  0.012400 )     1.88813527
  WF centre and spread    9  (  0.152424,  0.211880,  0.406055 )     1.81193739
  Sum of centres and spreads ( -0.005340,  0.001596,  0.005220 )    13.42133069

      7    -0.975E-02     0.0720378167       13.4213306927       0.26  <-- CONV
        O_D=      0.0036200 O_OD=      2.6656064 O_TOT=     13.4213307 <-- SPRD
 Delta: O_D= -0.5558693E-03 O_OD= -0.9195975E-02 O_TOT= -0.9751844E-02 <-- DLTA
 ------------------------------------------------------------------------------
 Cycle:      8
  WF centre and spread    1  ( -0.015884,  0.502256, -0.081199 )     1.70497859
  WF centre and spread    2  ( -0.025046, -0.101118,  0.186560 )     0.84620631
  WF centre and spread    3  (  0.321941,  0.153125, -0.117831 )     1.23588581
  WF centre and spread    4  (  0.128568, -0.159565, -0.340579 )     1.33836878
  WF centre and spread    5  (  0.390937, -0.248923,  0.048878 )     1.33678204
  WF centre and spread    6  ( -0.300972, -0.046478, -0.340644 )     1.36270248
  WF centre and spread    7  ( -0.487394,  0.127167,  0.226822 )     1.89849037
  WF centre and spread    8  ( -0.172248, -0.436798,  0.013576 )     1.87587070
  WF centre and spread    9  (  0.154560,  0.212424,  0.409284 )     1.80534060
  Sum of centres and spreads ( -0.005537,  0.002090,  0.004868 )    13.40462568

      8    -0.167E-01     0.0596175161       13.4046256837       0.30  <-- CONV
        O_D=      0.0045502 O_OD=      2.6479712 O_TOT=     13.4046257 <-- SPRD
 Delta: O_D=  0.9301744E-03 O_OD= -0.1763518E-01 O_TOT= -0.1670501E-01 <-- DLTA
 ------------------------------------------------------------------------------
 Cycle:      9
  WF centre and spread    1  ( -0.017625,  0.509709, -0.087095 )     1.71098385
  WF centre and spread    2  ( -0.020357, -0.102426,  0.185269 )     0.83316463
  WF centre and spread    3  (  0.322293,  0.153822, -0.119397 )     1.23781349
  WF centre and spread    4  (  0.129678, -0.158984, -0.343491 )     1.34072439
  WF centre and spread    5  (  0.393058, -0.251981,  0.050702 )     1.35392124
  WF centre and spread    6  ( -0.304429, -0.045006, -0.344388 )     1.38134581
  WF centre and spread    7  ( -0.492590,  0.128536,  0.230803 )     1.87625977
  WF centre and spread    8  ( -0.174647, -0.444200,  0.015994 )     1.85144384
  WF centre and spread    9  (  0.158843,  0.213454,  0.415745 )     1.79223453
  Sum of centres and spreads ( -0.005777,  0.002923,  0.004143 )    13.37789155

      9    -0.267E-01     0.0811346942       13.3778915475       0.34  <-- CONV
        O_D=      0.0061629 O_OD=      2.6196245 O_TOT=     13.3778915 <-- SPRD
 Delta: O_D=  0.1612657E-02 O_OD= -0.2834679E-01 O_TOT= -0.2673414E-01 <-- DLTA
 ------------------------------------------------------------------------------
 Cycle:     10
  WF centre and spread    1  ( -0.020154,  0.520054, -0.095931 )     1.71826494
  WF centre and spread    2  ( -0.013830, -0.103676,  0.182862 )     0.81679113
  WF centre and spread    3  (  0.322476,  0.154752, -0.121804 )     1.24145189
  WF centre and spread    4  (  0.131366, -0.157936, -0.347652 )     1.34482469
  WF centre and spread    5  (  0.396028, -0.256471,  0.053774 )     1.38368156
  WF centre and spread    6  ( -0.309167, -0.042444, -0.349448 )     1.41077338
  WF centre and spread    7  ( -0.499445,  0.130047,  0.236334 )     1.84033982
  WF centre and spread    8  ( -0.178138, -0.455279,  0.019743 )     1.81464870
  WF centre and spread    9  (  0.165139,  0.214775,  0.425185 )     1.77132037
  Sum of centres and spreads ( -0.005725,  0.003821,  0.003062 )    13.34209647

     10    -0.358E-01     0.0952570865       13.3420964690       0.38  <-- CONV
        O_D=      0.0079215 O_OD=      2.5820707 O_TOT=     13.3420965 <-- SPRD
 Delta: O_D=  0.1758659E-02 O_OD= -0.3755374E-01 O_TOT= -0.3579508E-01 <-- DLTA
 ------------------------------------------------------------------------------
 Cycle:     11
  WF centre and spread    1  ( -0.023703,  0.532865, -0.108797 )     1.72207864
  WF centre and spread    2  ( -0.005652, -0.103762,  0.178198 )     0.79996170
  WF centre and spread    3  (  0.321851,  0.155809, -0.125352 )     1.24874633
  WF centre and spread    4  (  0.133848, -0.156085, -0.353138 )     1.35196317
  WF centre and spread    5  (  0.399878, -0.262679,  0.058816 )     1.43253450
  WF centre and spread    6  ( -0.314836, -0.037931, -0.355286 )     1.45468130
  WF centre and spread    7  ( -0.507344,  0.131131,  0.243534 )     1.78525369
  WF centre and spread    8  ( -0.183036, -0.470971,  0.025441 )     1.75969154
  WF centre and spread    9  (  0.174045,  0.216142,  0.438121 )     1.73695600
  Sum of centres and spreads ( -0.004949,  0.004519,  0.001537 )    13.29186686

     11    -0.502E-01     0.1118682354       13.2918668630       0.42  <-- CONV
        O_D=      0.0098370 O_OD=      2.5299256 O_TOT=     13.2918669 <-- SPRD
 Delta: O_D=  0.1915506E-02 O_OD= -0.5214511E-01 O_TOT= -0.5022961E-01 <-- DLTA
 ------------------------------------------------------------------------------
 Cycle:     12
  WF centre and spread    1  ( -0.027510,  0.542636, -0.123366 )     1.71492142
  WF centre and spread    2  (  0.001410, -0.100282,  0.169980 )     0.79439008
  WF centre and spread    3  (  0.319189,  0.156358, -0.129255 )     1.25922226
  WF centre and spread    4  (  0.136399, -0.153269, -0.358215 )     1.36143082
  WF centre and spread    5  (  0.402929, -0.268758,  0.065369 )     1.49608999
  WF centre and spread    6  ( -0.318617, -0.031380, -0.358775 )     1.50624885
  WF centre and spread    7  ( -0.512617,  0.130368,  0.250577 )     1.71765470
  WF centre and spread    8  ( -0.188313, -0.487866,  0.032304 )     1.69248476
  WF centre and spread    9  (  0.183781,  0.216630,  0.451336 )     1.68981714
  Sum of centres and spreads ( -0.003348,  0.004437, -0.000046 )    13.23226001

     12    -0.596E-01     0.1280398169       13.2322600095       0.45  <-- CONV
        O_D=      0.0106227 O_OD=      2.4695331 O_TOT=     13.2322600 <-- SPRD
 Delta: O_D=  0.7856498E-03 O_OD= -0.6039250E-01 O_TOT= -0.5960685E-01 <-- DLTA
 ------------------------------------------------------------------------------
 Cycle:     13
  WF centre and spread    1  ( -0.027616,  0.542642, -0.123603 )     1.71021751
  WF centre and spread    2  (  0.001489, -0.100098,  0.169669 )     0.79299096
  WF centre and spread    3  (  0.318990,  0.156240, -0.129214 )     1.25810640
  WF centre and spread    4  (  0.136375, -0.153176, -0.358122 )     1.35927638
  WF centre and spread    5  (  0.403044, -0.268858,  0.065531 )     1.49359658
  WF centre and spread    6  ( -0.318664, -0.031237, -0.358742 )     1.50312343
  WF centre and spread    7  ( -0.512446,  0.130201,  0.250608 )     1.71504916
  WF centre and spread    8  ( -0.188374, -0.488053,  0.032466 )     1.68795830
  WF centre and spread    9  (  0.183896,  0.216534,  0.451467 )     1.68519046
  Sum of centres and spreads ( -0.003305,  0.004195,  0.000060 )    13.20550917

     13    -0.268E-01     0.1299045256       13.2055091733       0.49  <-- CONV
        O_D=      0.0067377 O_OD=      2.4466672 O_TOT=     13.2055092 <-- SPRD
 Delta: O_D= -0.3884966E-02 O_OD= -0.2286587E-01 O_TOT= -0.2675084E-01 <-- DLTA
 ------------------------------------------------------------------------------
 Cycle:     14
  WF centre and spread    1  ( -0.027830,  0.542645, -0.124066 )     1.70700600
  WF centre and spread    2  (  0.001654, -0.099687,  0.168978 )     0.79197967
  WF centre and spread    3  (  0.318554,  0.156019, -0.129158 )     1.25805058
  WF centre and spread    4  (  0.136363, -0.152984, -0.357950 )     1.35784094
  WF centre and spread    5  (  0.403279, -0.269074,  0.065888 )     1.49194018
  WF centre and spread    6  ( -0.318779, -0.030957, -0.358658 )     1.50132667
  WF centre and spread    7  ( -0.512060,  0.129856,  0.250681 )     1.71400002
  WF centre and spread    8  ( -0.188530, -0.488483,  0.032797 )     1.68317776
  WF centre and spread    9  (  0.184137,  0.216392,  0.451784 )     1.68099181
  Sum of centres and spreads ( -0.003212,  0.003727,  0.000296 )    13.18631363

     14    -0.192E-01     0.0870109336       13.1863136341       0.53  <-- CONV
        O_D=      0.0049394 O_OD=      2.4292700 O_TOT=     13.1863136 <-- SPRD
 Delta: O_D= -0.1798296E-02 O_OD= -0.1739724E-01 O_TOT= -0.1919554E-01 <-- DLTA
 ------------------------------------------------------------------------------
 Cycle:     15
  WF centre and spread    1  ( -0.028088,  0.542816, -0.124567 )     1.70728252
  WF centre and spread    2  (  0.001825, -0.099232,  0.168219 )     0.79102780
  WF centre and spread    3  (  0.318123,  0.155836, -0.129147 )     1.25744745
  WF centre and spread    4  (  0.136415, -0.152810, -0.357897 )     1.35664808
  WF centre and spread    5  (  0.403624, -0.269377,  0.066323 )     1.49105369
  WF centre and spread    6  ( -0.318994, -0.030659, -0.358678 )     1.50189379
  WF centre and spread    7  ( -0.511679,  0.129501,  0.250818 )     1.71322786
  WF centre and spread    8  ( -0.188778, -0.489090,  0.033154 )     1.67961948
  WF centre and spread    9  (  0.184435,  0.216365,  0.452312 )     1.67925848
  Sum of centres and spreads ( -0.003117,  0.003350,  0.000537 )    13.17745914

     15    -0.885E-02     0.0576134176       13.1774591370       0.57  <-- CONV
        O_D=      0.0040643 O_OD=      2.4212906 O_TOT=     13.1774591 <-- SPRD
 Delta: O_D= -0.8750727E-03 O_OD= -0.7979424E-02 O_TOT= -0.8854497E-02 <-- DLTA
 ------------------------------------------------------------------------------
 Cycle:     16
  WF centre and spread    1  ( -0.028450,  0.543146, -0.125233 )     1.70958053
  WF centre and spread    2  (  0.002028, -0.098615,  0.167195 )     0.78935428
  WF centre and spread    3  (  0.317572,  0.155622, -0.129151 )     1.25590788
  WF centre and spread    4  (  0.136527, -0.152614, -0.357920 )     1.35502107
  WF centre and spread    5  (  0.404124, -0.269820,  0.066913 )     1.49018599
  WF centre and spread    6  ( -0.319319, -0.030261, -0.358789 )     1.50394048
  WF centre and spread    7  ( -0.511213,  0.129061,  0.251065 )     1.71231628
  WF centre and spread    8  ( -0.189169, -0.489965,  0.033614 )     1.67601285
  WF centre and spread    9  (  0.184854,  0.216431,  0.453132 )     1.67874025
  Sum of centres and spreads ( -0.003046,  0.002986,  0.000827 )    13.17105961

     16    -0.640E-02     0.0481922412       13.1710596122       0.61  <-- CONV
        O_D=      0.0036017 O_OD=      2.4153536 O_TOT=     13.1710596 <-- SPRD
 Delta: O_D= -0.4625916E-03 O_OD= -0.5936933E-02 O_TOT= -0.6399525E-02 <-- DLTA
 ------------------------------------------------------------------------------
 Cycle:     17
  WF centre and spread    1  ( -0.028821,  0.543476, -0.125916 )     1.71252149
  WF centre and spread    2  (  0.002213, -0.097953,  0.166101 )     0.78732874
  WF centre and spread    3  (  0.316980,  0.155402, -0.129147 )     1.25388994
  WF centre and spread    4  (  0.136658, -0.152431, -0.357970 )     1.35342061
  WF centre and spread    5  (  0.404619, -0.270272,  0.067486 )     1.48934476
  WF centre and spread    6  ( -0.319633, -0.029862, -0.358919 )     1.50642296
  WF centre and spread    7  ( -0.510745,  0.128647,  0.251383 )     1.71185132
  WF centre and spread    8  ( -0.189617, -0.490845,  0.034062 )     1.67318207
  WF centre and spread    9  (  0.185292,  0.216567,  0.454005 )     1.67922178
  Sum of centres and spreads ( -0.003052,  0.002729,  0.001086 )    13.16718367

     17    -0.388E-02     0.0389700544       13.1671836672       0.64  <-- CONV
        O_D=      0.0033411 O_OD=      2.4117383 O_TOT=     13.1671837 <-- SPRD
 Delta: O_D= -0.2605976E-03 O_OD= -0.3615347E-02 O_TOT= -0.3875945E-02 <-- DLTA
 ------------------------------------------------------------------------------
 Cycle:     18
  WF centre and spread    1  ( -0.029190,  0.543768, -0.126610 )     1.71521583
  WF centre and spread    2  (  0.002381, -0.097242,  0.164942 )     0.78519321
  WF centre and spread    3  (  0.316336,  0.155164, -0.129125 )     1.25171514
  WF centre and spread    4  (  0.136790, -0.152249, -0.358027 )     1.35201302
  WF centre and spread    5  (  0.405093, -0.270716,  0.068020 )     1.48854620
  WF centre and spread    6  ( -0.319914, -0.029470, -0.359044 )     1.50879331
  WF centre and spread    7  ( -0.510256,  0.128257,  0.251758 )     1.71214295
  WF centre and spread    8  ( -0.190106, -0.491691,  0.034498 )     1.67102472
  WF centre and spread    9  (  0.185738,  0.216751,  0.454892 )     1.68026297
  Sum of centres and spreads ( -0.003127,  0.002571,  0.001305 )    13.16490735

     18    -0.228E-02     0.0290440257       13.1649073456       0.68  <-- CONV
        O_D=      0.0033926 O_OD=      2.4094105 O_TOT=     13.1649073 <-- SPRD
 Delta: O_D=  0.5148604E-04 O_OD= -0.2327808E-02 O_TOT= -0.2276322E-02 <-- DLTA
 ------------------------------------------------------------------------------
 Cycle:     19
  WF centre and spread    1  ( -0.029288,  0.543839, -0.126803 )     1.71530500
  WF centre and spread    2  (  0.002419, -0.097023,  0.164598 )     0.78458064
  WF centre and spread    3  (  0.316138,  0.155089, -0.129110 )     1.25100275
  WF centre and spread    4  (  0.136819, -0.152196, -0.358053 )     1.35159811
  WF centre and spread    5  (  0.405222, -0.270833,  0.068145 )     1.48828663
  WF centre and spread    6  ( -0.319975, -0.029367, -0.359081 )     1.50907399
  WF centre and spread    7  ( -0.510102,  0.128155,  0.251881 )     1.71241738
  WF centre and spread    8  ( -0.190258, -0.491909,  0.034611 )     1.67055035
  WF centre and spread    9  (  0.185860,  0.216822,  0.455143 )     1.68047793
  Sum of centres and spreads ( -0.003166,  0.002577,  0.001332 )    13.16329278

     19    -0.161E-02     0.0297033410       13.1632927830       0.72  <-- CONV
        O_D=      0.0032588 O_OD=      2.4079297 O_TOT=     13.1632928 <-- SPRD
 Delta: O_D= -0.1337871E-03 O_OD= -0.1480775E-02 O_TOT= -0.1614563E-02 <-- DLTA
 ------------------------------------------------------------------------------
 Cycle:     20
  WF centre and spread    1  ( -0.029648,  0.544094, -0.127505 )     1.71620232
  WF centre and spread    2  (  0.002556, -0.096211,  0.163323 )     0.78259818
  WF centre and spread    3  (  0.315408,  0.154818, -0.129057 )     1.24862448
  WF centre and spread    4  (  0.136933, -0.152001, -0.358152 )     1.35032652
  WF centre and spread    5  (  0.405695, -0.271264,  0.068613 )     1.48782048
  WF centre and spread    6  ( -0.320196, -0.028986, -0.359213 )     1.51056330
  WF centre and spread    7  ( -0.509532,  0.127774,  0.252332 )     1.71374136
  WF centre and spread    8  ( -0.190820, -0.492722,  0.035022 )     1.66929134
  WF centre and spread    9  (  0.186306,  0.217086,  0.456067 )     1.68174007
  Sum of centres and spreads ( -0.003298,  0.002587,  0.001431 )    13.16090804

     20    -0.238E-02     0.0241871969       13.1609080443       0.76  <-- CONV
        O_D=      0.0033837 O_OD=      2.4054201 O_TOT=     13.1609080 <-- SPRD
 Delta: O_D=  0.1248436E-03 O_OD= -0.2509582E-02 O_TOT= -0.2384739E-02 <-- DLTA
 ------------------------------------------------------------------------------
 Cycle:     21
  WF centre and spread    1  ( -0.030305,  0.544569, -0.128767 )     1.71797697
  WF centre and spread    2  (  0.002787, -0.094725,  0.160996 )     0.77935289
  WF centre and spread    3  (  0.314095,  0.154334, -0.128971 )     1.24437987
  WF centre and spread    4  (  0.137154, -0.151645, -0.358347 )     1.34799937
  WF centre and spread    5  (  0.406578, -0.272066,  0.069497 )     1.48753187
  WF centre and spread    6  ( -0.320595, -0.028281, -0.359452 )     1.51348197
  WF centre and spread    7  ( -0.508483,  0.127069,  0.253134 )     1.71583879
  WF centre and spread    8  ( -0.191836, -0.494228,  0.035759 )     1.66722744
  WF centre and spread    9  (  0.187116,  0.217561,  0.457752 )     1.68407283
  Sum of centres and spreads ( -0.003488,  0.002588,  0.001602 )    13.15786200

     21    -0.305E-02     0.0283939837       13.1578620047       0.80  <-- CONV
        O_D=      0.0035391 O_OD=      2.4022187 O_TOT=     13.1578620 <-- SPRD
 Delta: O_D=  0.1554190E-03 O_OD= -0.3201459E-02 O_TOT= -0.3046040E-02 <-- DLTA
 ------------------------------------------------------------------------------
 Cycle:     22
  WF centre and spread    1  ( -0.031353,  0.545335, -0.130738 )     1.72030577
  WF centre and spread    2  (  0.003105, -0.092357,  0.157314 )     0.77485169
  WF centre and spread    3  (  0.312048,  0.153581, -0.128844 )     1.23798108
  WF centre and spread    4  (  0.137535, -0.151078, -0.358688 )     1.34436938
  WF centre and spread    5  (  0.408020, -0.273376,  0.070959 )     1.48793374
  WF centre and spread    6  ( -0.321207, -0.027134, -0.359823 )     1.51798364
  WF centre and spread    7  ( -0.506796,  0.125932,  0.254357 )     1.71879321
  WF centre and spread    8  ( -0.193426, -0.496632,  0.036910 )     1.66418703
  WF centre and spread    9  (  0.188386,  0.218291,  0.460406 )     1.68748136
  Sum of centres and spreads ( -0.003689,  0.002562,  0.001853 )    13.15388689

     22    -0.398E-02     0.0331273575       13.1538868866       0.83  <-- CONV
        O_D=      0.0038784 O_OD=      2.3979042 O_TOT=     13.1538869 <-- SPRD
 Delta: O_D=  0.3393147E-03 O_OD= -0.4314433E-02 O_TOT= -0.3975118E-02 <-- DLTA
 ------------------------------------------------------------------------------
 Cycle:     23
  WF centre and spread    1  ( -0.033340,  0.546650, -0.134410 )     1.72274886
  WF centre and spread    2  (  0.003538, -0.087791,  0.150284 )     0.76790282
  WF centre and spread    3  (  0.308171,  0.152144, -0.128591 )     1.22684327
  WF centre and spread    4  (  0.138314, -0.149972, -0.359335 )     1.33795529
  WF centre and spread    5  (  0.410779, -0.275919,  0.073853 )     1.49024749
  WF centre and spread    6  ( -0.322238, -0.024899, -0.360407 )     1.52552457
  WF centre and spread    7  ( -0.503449,  0.123731,  0.256560 )     1.72421731
  WF centre and spread    8  ( -0.196384, -0.501079,  0.039043 )     1.65887630
  WF centre and spread    9  (  0.190735,  0.219584,  0.465288 )     1.69290213
  Sum of centres and spreads ( -0.003874,  0.002449,  0.002284 )    13.14721803

     23    -0.667E-02     0.0371240010       13.1472180318       0.87  <-- CONV
        O_D=      0.0043819 O_OD=      2.3907318 O_TOT=     13.1472180 <-- SPRD
 Delta: O_D=  0.5035289E-03 O_OD= -0.7172384E-02 O_TOT= -0.6668855E-02 <-- DLTA
 ------------------------------------------------------------------------------
 Cycle:     24
  WF centre and spread    1  ( -0.035763,  0.547775, -0.138825 )     1.72312377
  WF centre and spread    2  (  0.003753, -0.081945,  0.141416 )     0.76097098
  WF centre and spread    3  (  0.303238,  0.150279, -0.128187 )     1.21426284
  WF centre and spread    4  (  0.139315, -0.148521, -0.360003 )     1.33082037
  WF centre and spread    5  (  0.414015, -0.279056,  0.077559 )     1.49436281
  WF centre and spread    6  ( -0.323158, -0.022056, -0.360782 )     1.53323384
  WF centre and spread    7  ( -0.498944,  0.120937,  0.259094 )     1.73120925
  WF centre and spread    8  ( -0.199927, -0.506171,  0.041582 )     1.65293997
  WF centre and spread    9  (  0.193495,  0.220997,  0.470918 )     1.69847890
  Sum of centres and spreads ( -0.003976,  0.002239,  0.002772 )    13.13940272

     24    -0.782E-02     0.0495416155       13.1394027232       0.91  <-- CONV
        O_D=      0.0050368 O_OD=      2.3822616 O_TOT=     13.1394027 <-- SPRD
 Delta: O_D=  0.6549007E-03 O_OD= -0.8470209E-02 O_TOT= -0.7815309E-02 <-- DLTA
 ------------------------------------------------------------------------------
 Cycle:     25
  WF centre and spread    1  ( -0.035800,  0.547767, -0.138935 )     1.72112314
  WF centre and spread    2  (  0.003752, -0.081759,  0.141133 )     0.76066956
  WF centre and spread    3  (  0.303058,  0.150197, -0.128129 )     1.21402868
  WF centre and spread    4  (  0.139327, -0.148469, -0.359982 )     1.33047027
  WF centre and spread    5  (  0.414101, -0.279121,  0.077638 )     1.49442380
  WF centre and spread    6  ( -0.323162, -0.021972, -0.360770 )     1.53192191
  WF centre and spread    7  ( -0.498807,  0.120850,  0.259149 )     1.73106579
  WF centre and spread    8  ( -0.199981, -0.506275,  0.041633 )     1.65261068
  WF centre and spread    9  (  0.193565,  0.221002,  0.471006 )     1.69756019
  Sum of centres and spreads ( -0.003948,  0.002220,  0.002745 )    13.13387401

     25    -0.553E-02     0.0590861538       13.1338740128       0.95  <-- CONV
        O_D=      0.0041298 O_OD=      2.3776399 O_TOT=     13.1338740 <-- SPRD
 Delta: O_D= -0.9070280E-03 O_OD= -0.4621682E-02 O_TOT= -0.5528710E-02 <-- DLTA
 ------------------------------------------------------------------------------
 Cycle:     26
  WF centre and spread    1  ( -0.035880,  0.547767, -0.139164 )     1.71852753
  WF centre and spread    2  (  0.003745, -0.081356,  0.140524 )     0.76029433
  WF centre and spread    3  (  0.302670,  0.150032, -0.128012 )     1.21385740
  WF centre and spread    4  (  0.139367, -0.148365, -0.359958 )     1.33033744
  WF centre and spread    5  (  0.414295, -0.279265,  0.077811 )     1.49539989
  WF centre and spread    6  ( -0.323179, -0.021800, -0.360753 )     1.53032894
  WF centre and spread    7  ( -0.498511,  0.120669,  0.259272 )     1.73154187
  WF centre and spread    8  ( -0.200110, -0.506516,  0.041740 )     1.65298082
  WF centre and spread    9  (  0.193721,  0.221035,  0.471224 )     1.69694361
  Sum of centres and spreads ( -0.003883,  0.002201,  0.002683 )    13.13021183

     26    -0.366E-02     0.0385869438       13.1302118299       0.99  <-- CONV
        O_D=      0.0036722 O_OD=      2.3744354 O_TOT=     13.1302118 <-- SPRD
 Delta: O_D= -0.4576266E-03 O_OD= -0.3204556E-02 O_TOT= -0.3662183E-02 <-- DLTA
 ------------------------------------------------------------------------------
 Cycle:     27
  WF centre and spread    1  ( -0.035985,  0.547839, -0.139448 )     1.71673751
  WF centre and spread    2  (  0.003731, -0.080877,  0.139798 )     0.75965201
  WF centre and spread    3  (  0.302221,  0.149856, -0.127888 )     1.21325459
  WF centre and spread    4  (  0.139438, -0.148261, -0.359981 )     1.33017705
  WF centre and spread    5  (  0.414568, -0.279460,  0.078034 )     1.49678753
  WF centre and spread    6  ( -0.323236, -0.021605, -0.360778 )     1.52932673
  WF centre and spread    7  ( -0.498179,  0.120464,  0.259444 )     1.73177255
  WF centre and spread    8  ( -0.200296, -0.506859,  0.041875 )     1.65374564
  WF centre and spread    9  (  0.193932,  0.221119,  0.471558 )     1.69701761
  Sum of centres and spreads ( -0.003804,  0.002216,  0.002613 )    13.12847121

     27    -0.174E-02     0.0255786928       13.1284712052       1.02  <-- CONV
        O_D=      0.0034433 O_OD=      2.3729237 O_TOT=     13.1284712 <-- SPRD
 Delta: O_D= -0.2288848E-03 O_OD= -0.1511740E-02 O_TOT= -0.1740625E-02 <-- DLTA
 ------------------------------------------------------------------------------
 Cycle:     28
  WF centre and spread    1  ( -0.036139,  0.547982, -0.139865 )     1.71517282
  WF centre and spread    2  (  0.003706, -0.080197,  0.138763 )     0.75839881
  WF centre and spread    3  (  0.301582,  0.149617, -0.127718 )     1.21200690
  WF centre and spread    4  (  0.139555, -0.148130, -0.360041 )     1.32989709
  WF centre and spread    5  (  0.414975, -0.279751,  0.078356 )     1.49874384
  WF centre and spread    6  ( -0.323339, -0.021339, -0.360845 )     1.52855219
  WF centre and spread    7  ( -0.497725,  0.120186,  0.259714 )     1.73171118
  WF centre and spread    8  ( -0.200582, -0.507377,  0.042076 )     1.65493930
  WF centre and spread    9  (  0.194257,  0.221268,  0.472087 )     1.69768896
  Sum of centres and spreads ( -0.003709,  0.002259,  0.002527 )    13.12711110

     28    -0.136E-02     0.0218467758       13.1271110984       1.06  <-- CONV
        O_D=      0.0033199 O_OD=      2.3716869 O_TOT=     13.1271111 <-- SPRD
 Delta: O_D= -0.1233906E-03 O_OD= -0.1236716E-02 O_TOT= -0.1360107E-02 <-- DLTA
 ------------------------------------------------------------------------------
 Cycle:     29
  WF centre and spread    1  ( -0.036317,  0.548138, -0.140369 )     1.71403973
  WF centre and spread    2  (  0.003672, -0.079385,  0.137518 )     0.75658803
  WF centre and spread    3  (  0.300798,  0.149331, -0.127509 )     1.21027551
  WF centre and spread    4  (  0.139699, -0.147986, -0.360106 )     1.32962037
  WF centre and spread    5  (  0.415444, -0.280089,  0.078729 )     1.50089995
  WF centre and spread    6  ( -0.323462, -0.021042, -0.360924 )     1.52806819
  WF centre and spread    7  ( -0.497188,  0.119870,  0.260058 )     1.73138653
  WF centre and spread    8  ( -0.200935, -0.507982,  0.042322 )     1.65636316
  WF centre and spread    9  (  0.194659,  0.221459,  0.472726 )     1.69885908
  Sum of centres and spreads ( -0.003631,  0.002314,  0.002446 )    13.12610054

     29    -0.101E-02     0.0189012104       13.1261005420       1.10  <-- CONV
        O_D=      0.0032724 O_OD=      2.3707239 O_TOT=     13.1261005 <-- SPRD
 Delta: O_D= -0.4749710E-04 O_OD= -0.9630593E-03 O_TOT= -0.1010556E-02 <-- DLTA
 ------------------------------------------------------------------------------
 Cycle:     30
  WF centre and spread    1  ( -0.036508,  0.548271, -0.140942 )     1.71324448
  WF centre and spread    2  (  0.003626, -0.078450,  0.136077 )     0.75428001
  WF centre and spread    3  (  0.299864,  0.148990, -0.127255 )     1.20821654
  WF centre and spread    4  (  0.139860, -0.147828, -0.360153 )     1.32948045
  WF centre and spread    5  (  0.415945, -0.280457,  0.079133 )     1.50310801
  WF centre and spread    6  ( -0.323592, -0.020726, -0.360991 )     1.52778166
  WF centre and spread    7  ( -0.496561,  0.119522,  0.260463 )     1.73091949
  WF centre and spread    8  ( -0.201341, -0.508630,  0.042611 )     1.65790550
  WF centre and spread    9  (  0.195123,  0.221676,  0.473436 )     1.70040721
  Sum of centres and spreads ( -0.003583,  0.002368,  0.002380 )    13.12534334

     30    -0.757E-03     0.0159373288       13.1253433445       1.14  <-- CONV
        O_D=      0.0033359 O_OD=      2.3699032 O_TOT=     13.1253433 <-- SPRD
 Delta: O_D=  0.6350199E-04 O_OD= -0.8206995E-03 O_TOT= -0.7571975E-03 <-- DLTA
 ------------------------------------------------------------------------------
 Cycle:     31
  WF centre and spread    1  ( -0.036539,  0.548277, -0.141052 )     1.71320048
  WF centre and spread    2  (  0.003615, -0.078260,  0.135783 )     0.75370425
  WF centre and spread    3  (  0.299660,  0.148913, -0.127195 )     1.20777122
  WF centre and spread    4  (  0.139888, -0.147800, -0.360149 )     1.32950303
  WF centre and spread    5  (  0.416028, -0.280521,  0.079203 )     1.50334626
  WF centre and spread    6  ( -0.323612, -0.020675, -0.360993 )     1.52776464
  WF centre and spread    7  ( -0.496426,  0.119456,  0.260545 )     1.73069527
  WF centre and spread    8  ( -0.201421, -0.508738,  0.042674 )     1.65803218
  WF centre and spread    9  (  0.195214,  0.221716,  0.473566 )     1.70066460
  Sum of centres and spreads ( -0.003593,  0.002368,  0.002381 )    13.12468194

     31    -0.661E-03     0.0195401938       13.1246819425       1.18  <-- CONV
        O_D=      0.0032713 O_OD=      2.3693064 O_TOT=     13.1246819 <-- SPRD
 Delta: O_D= -0.6459341E-04 O_OD= -0.5968085E-03 O_TOT= -0.6614019E-03 <-- DLTA
 ------------------------------------------------------------------------------
 Cycle:     32
  WF centre and spread    1  ( -0.036653,  0.548310, -0.141447 )     1.71332394
  WF centre and spread    2  (  0.003575, -0.077580,  0.134727 )     0.75174479
  WF centre and spread    3  (  0.298931,  0.148642, -0.126983 )     1.20626250
  WF centre and spread    4  (  0.139995, -0.147702, -0.360143 )     1.32967547
  WF centre and spread    5  (  0.416339, -0.280757,  0.079460 )     1.50441126
  WF centre and spread    6  ( -0.323691, -0.020491, -0.361002 )     1.52791203
  WF centre and spread    7  ( -0.495945,  0.119220,  0.260838 )     1.73001627
  WF centre and spread    8  ( -0.201713, -0.509137,  0.042897 )     1.65867848
  WF centre and spread    9  (  0.195541,  0.221863,  0.474043 )     1.70177964
  Sum of centres and spreads ( -0.003622,  0.002368,  0.002390 )    13.12380437

     32    -0.878E-03     0.0148888293       13.1238043658       1.21  <-- CONV
        O_D=      0.0033059 O_OD=      2.3683942 O_TOT=     13.1238044 <-- SPRD
 Delta: O_D=  0.3461036E-04 O_OD= -0.9121871E-03 O_TOT= -0.8775767E-03 <-- DLTA
 ------------------------------------------------------------------------------
 Cycle:     33
  WF centre and spread    1  ( -0.036865,  0.548409, -0.142156 )     1.71371075
  WF centre and spread    2  (  0.003503, -0.076369,  0.132848 )     0.74835239
  WF centre and spread    3  (  0.297645,  0.148167, -0.126607 )     1.20358251
  WF centre and spread    4  (  0.140194, -0.147532, -0.360159 )     1.32994183
  WF centre and spread    5  (  0.416923, -0.281194,  0.079940 )     1.50652964
  WF centre and spread    6  ( -0.323848, -0.020153, -0.361035 )     1.52830116
  WF centre and spread    7  ( -0.495099,  0.118796,  0.261361 )     1.72868989
  WF centre and spread    8  ( -0.202239, -0.509889,  0.043298 )     1.65986392
  WF centre and spread    9  (  0.196132,  0.222128,  0.474918 )     1.70375664
  Sum of centres and spreads ( -0.003654,  0.002364,  0.002408 )    13.12272874

     33    -0.108E-02     0.0172191679       13.1227287387       1.25  <-- CONV
        O_D=      0.0033802 O_OD=      2.3672443 O_TOT=     13.1227287 <-- SPRD
 Delta: O_D=  0.7428220E-04 O_OD= -0.1149909E-02 O_TOT= -0.1075627E-02 <-- DLTA
 ------------------------------------------------------------------------------
 Cycle:     34
  WF centre and spread    1  ( -0.037220,  0.548630, -0.143287 )     1.71431279
  WF centre and spread    2  (  0.003389, -0.074453,  0.129878 )     0.74317958
  WF centre and spread    3  (  0.295624,  0.147418, -0.126002 )     1.19943324
  WF centre and spread    4  (  0.140525, -0.147268, -0.360231 )     1.33034502
  WF centre and spread    5  (  0.417900, -0.281911,  0.080737 )     1.51020583
  WF centre and spread    6  ( -0.324120, -0.019594, -0.361104 )     1.52892272
  WF centre and spread    7  ( -0.493762,  0.118112,  0.262179 )     1.72650205
  WF centre and spread    8  ( -0.203074, -0.511130,  0.043937 )     1.66172048
  WF centre and spread    9  (  0.197075,  0.222548,  0.476333 )     1.70672071
  Sum of centres and spreads ( -0.003663,  0.002352,  0.002442 )    13.12134242

     34    -0.139E-02     0.0194988331       13.1213424188       1.29  <-- CONV
        O_D=      0.0035390 O_OD=      2.3656992 O_TOT=     13.1213424 <-- SPRD
 Delta: O_D=  0.1587369E-03 O_OD= -0.1545057E-02 O_TOT= -0.1386320E-02 <-- DLTA
 ------------------------------------------------------------------------------
 Cycle:     35
  WF centre and spread    1  ( -0.037944,  0.549108, -0.145543 )     1.71502844
  WF centre and spread    2  (  0.003154, -0.070640,  0.123970 )     0.73339216
  WF centre and spread    3  (  0.291586,  0.145899, -0.124739 )     1.19155923
  WF centre and spread    4  (  0.141204, -0.146737, -0.360430 )     1.33134939
  WF centre and spread    5  (  0.419897, -0.283357,  0.082380 )     1.51805055
  WF centre and spread    6  ( -0.324671, -0.018438, -0.361224 )     1.52976973
  WF centre and spread    7  ( -0.491047,  0.116721,  0.263771 )     1.72233931
  WF centre and spread    8  ( -0.204724, -0.513617,  0.045213 )     1.66536360
  WF centre and spread    9  (  0.198941,  0.223359,  0.479120 )     1.71204462
  Sum of centres and spreads ( -0.003605,  0.002298,  0.002518 )    13.11889703

     35    -0.245E-02     0.0222278631       13.1188970345       1.33  <-- CONV
        O_D=      0.0038466 O_OD=      2.3629461 O_TOT=     13.1188970 <-- SPRD
 Delta: O_D=  0.3076903E-03 O_OD= -0.2753075E-02 O_TOT= -0.2445384E-02 <-- DLTA
 ------------------------------------------------------------------------------
 Cycle:     36
  WF centre and spread    1  ( -0.038975,  0.549687, -0.148746 )     1.71516558
  WF centre and spread    2  (  0.002800, -0.065245,  0.115591 )     0.72007964
  WF centre and spread    3  (  0.285758,  0.143657, -0.122795 )     1.18086841
  WF centre and spread    4  (  0.142171, -0.145955, -0.360716 )     1.33328329
  WF centre and spread    5  (  0.422686, -0.285371,  0.084754 )     1.52959567
  WF centre and spread    6  ( -0.325396, -0.016746, -0.361279 )     1.53016678
  WF centre and spread    7  ( -0.487035,  0.114696,  0.265960 )     1.71699706
  WF centre and spread    8  ( -0.207016, -0.516998,  0.046995 )     1.67053598
  WF centre and spread    9  (  0.201532,  0.224440,  0.482875 )     1.71888182
  Sum of centres and spreads ( -0.003474,  0.002165,  0.002640 )    13.11557423

     36    -0.332E-02     0.0308192686       13.1155742285       1.37  <-- CONV
        O_D=      0.0043289 O_OD=      2.3591410 O_TOT=     13.1155742 <-- SPRD
 Delta: O_D=  0.4822907E-03 O_OD= -0.3805097E-02 O_TOT= -0.3322806E-02 <-- DLTA
 ------------------------------------------------------------------------------
 Cycle:     37
  WF centre and spread    1  ( -0.038990,  0.549688, -0.148809 )     1.71434067
  WF centre and spread    2  (  0.002795, -0.065105,  0.115378 )     0.71971638
  WF centre and spread    3  (  0.285591,  0.143576, -0.122712 )     1.18068169
  WF centre and spread    4  (  0.142185, -0.145930, -0.360723 )     1.33323531
  WF centre and spread    5  (  0.422753, -0.285404,  0.084803 )     1.52959609
  WF centre and spread    6  ( -0.325406, -0.016697, -0.361250 )     1.52948973
  WF centre and spread    7  ( -0.486913,  0.114640,  0.265987 )     1.71696844
  WF centre and spread    8  ( -0.207051, -0.517068,  0.047050 )     1.67036217
  WF centre and spread    9  (  0.201571,  0.224433,  0.482929 )     1.71840985
  Sum of centres and spreads ( -0.003465,  0.002133,  0.002653 )    13.11280034

     37    -0.277E-02     0.0418801402       13.1128003358       1.41  <-- CONV
        O_D=      0.0038262 O_OD=      2.3568699 O_TOT=     13.1128003 <-- SPRD
 Delta: O_D= -0.5027329E-03 O_OD= -0.2271160E-02 O_TOT= -0.2773893E-02 <-- DLTA
 ------------------------------------------------------------------------------
 Cycle:     38
  WF centre and spread    1  ( -0.039024,  0.549707, -0.148948 )     1.71345515
  WF centre and spread    2  (  0.002783, -0.064795,  0.114906 )     0.71903707
  WF centre and spread    3  (  0.285224,  0.143405, -0.122533 )     1.18038805
  WF centre and spread    4  (  0.142226, -0.145882, -0.360756 )     1.33343073
  WF centre and spread    5  (  0.422911, -0.285480,  0.084913 )     1.53006653
  WF centre and spread    6  ( -0.325435, -0.016596, -0.361193 )     1.52867571
  WF centre and spread    7  ( -0.486648,  0.114522,  0.266052 )     1.71726146
  WF centre and spread    8  ( -0.207139, -0.517236,  0.047169 )     1.67053545
  WF centre and spread    9  (  0.201663,  0.224432,  0.483068 )     1.71809551
  Sum of centres and spreads ( -0.003440,  0.002078,  0.002678 )    13.11094566

     38    -0.185E-02     0.0272463841       13.1109456636       1.45  <-- CONV
        O_D=      0.0035417 O_OD=      2.3552997 O_TOT=     13.1109457 <-- SPRD
 Delta: O_D= -0.2845128E-03 O_OD= -0.1570159E-02 O_TOT= -0.1854672E-02 <-- DLTA
 ------------------------------------------------------------------------------
 Cycle:     39
  WF centre and spread    1  ( -0.039070,  0.549783, -0.149130 )     1.71311538
  WF centre and spread    2  (  0.002765, -0.064417,  0.114328 )     0.71808064
  WF centre and spread    3  (  0.284780,  0.143209, -0.122324 )     1.17972833
  WF centre and spread    4  (  0.142295, -0.145840, -0.360831 )     1.33362745
  WF centre and spread    5  (  0.423136, -0.285591,  0.085059 )     1.53080892
  WF centre and spread    6  ( -0.325497, -0.016479, -0.361156 )     1.52821314
  WF centre and spread    7  ( -0.486339,  0.114388,  0.266149 )     1.71735485
  WF centre and spread    8  ( -0.207269, -0.517474,  0.047322 )     1.67091364
  WF centre and spread    9  (  0.201796,  0.224458,  0.483287 )     1.71816383
  Sum of centres and spreads ( -0.003403,  0.002038,  0.002704 )    13.11000619

     39    -0.939E-03     0.0187575319       13.1100061917       1.49  <-- CONV
        O_D=      0.0033949 O_OD=      2.3545070 O_TOT=     13.1100062 <-- SPRD
 Delta: O_D= -0.1467490E-03 O_OD= -0.7927229E-03 O_TOT= -0.9394719E-03 <-- DLTA
 ------------------------------------------------------------------------------
 Cycle:     40
  WF centre and spread    1  ( -0.039139,  0.549927, -0.149401 )     1.71317224
  WF centre and spread    2  (  0.002737, -0.063886,  0.113510 )     0.71655964
  WF centre and spread    3  (  0.284151,  0.142943, -0.122034 )     1.17849521
  WF centre and spread    4  (  0.142407, -0.145795, -0.360959 )     1.33384309
  WF centre and spread    5  (  0.423476, -0.285761,  0.085269 )     1.53188976
  WF centre and spread    6  ( -0.325604, -0.016323, -0.361129 )     1.52795779
  WF centre and spread    7  ( -0.485917,  0.114211,  0.266304 )     1.71721678
  WF centre and spread    8  ( -0.207470, -0.517831,  0.047544 )     1.67152879
  WF centre and spread    9  (  0.202004,  0.224517,  0.483632 )     1.71860689
  Sum of centres and spreads ( -0.003356,  0.002003,  0.002736 )    13.10927020

     40    -0.736E-03     0.0160011770       13.1092701960       1.52  <-- CONV
        O_D=      0.0033125 O_OD=      2.3538535 O_TOT=     13.1092702 <-- SPRD
 Delta: O_D= -0.8247026E-04 O_OD= -0.6535255E-03 O_TOT= -0.7359958E-03 <-- DLTA
 ------------------------------------------------------------------------------
 Cycle:     41
  WF centre and spread    1  ( -0.039213,  0.550097, -0.149728 )     1.71354828
  WF centre and spread    2  (  0.002702, -0.063264,  0.112545 )     0.71464146
  WF centre and spread    3  (  0.283397,  0.142630, -0.121693 )     1.17684496
  WF centre and spread    4  (  0.142546, -0.145751, -0.361106 )     1.33410814
  WF centre and spread    5  (  0.423868, -0.285961,  0.085506 )     1.53309074
  WF centre and spread    6  ( -0.325735, -0.016154, -0.361102 )     1.52788864
  WF centre and spread    7  ( -0.485427,  0.114017,  0.266500 )     1.71692221
  WF centre and spread    8  ( -0.207718, -0.518237,  0.047808 )     1.67231420
  WF centre and spread    9  (  0.202261,  0.224596,  0.484040 )     1.71936498
  Sum of centres and spreads ( -0.003318,  0.001974,  0.002770 )    13.10872362

     41    -0.547E-03     0.0140258100       13.1087236160       1.56  <-- CONV
        O_D=      0.0032880 O_OD=      2.3533314 O_TOT=     13.1087236 <-- SPRD
 Delta: O_D= -0.2447296E-04 O_OD= -0.5221070E-03 O_TOT= -0.5465800E-03 <-- DLTA
 ------------------------------------------------------------------------------
 Cycle:     42
  WF centre and spread    1  ( -0.039284,  0.550263, -0.150109 )     1.71410822
  WF centre and spread    2  (  0.002660, -0.062543,  0.111419 )     0.71235380
  WF centre and spread    3  (  0.282492,  0.142259, -0.121288 )     1.17482098
  WF centre and spread    4  (  0.142708, -0.145702, -0.361257 )     1.33450520
  WF centre and spread    5  (  0.424297, -0.286179,  0.085762 )     1.53435102
  WF centre and spread    6  ( -0.325879, -0.015977, -0.361060 )     1.52790903
  WF centre and spread    7  ( -0.484850,  0.113803,  0.266735 )     1.71657478
  WF centre and spread    8  ( -0.208007, -0.518665,  0.048114 )     1.67328145
  WF centre and spread    9  (  0.202561,  0.224688,  0.484488 )     1.72040588
  Sum of centres and spreads ( -0.003300,  0.001946,  0.002804 )    13.10831037

     42    -0.413E-03     0.0116511023       13.1083103679       1.60  <-- CONV
        O_D=      0.0033302 O_OD=      2.3528759 O_TOT=     13.1083104 <-- SPRD
 Delta: O_D=  0.4218736E-04 O_OD= -0.4554354E-03 O_TOT= -0.4132481E-03 <-- DLTA
 ------------------------------------------------------------------------------
 Cycle:     43
  WF centre and spread    1  ( -0.039290,  0.550281, -0.150183 )     1.71417528
  WF centre and spread    2  (  0.002652, -0.062402,  0.111198 )     0.71188029
  WF centre and spread    3  (  0.282301,  0.142181, -0.121204 )     1.17437094
  WF centre and spread    4  (  0.142738, -0.145693, -0.361276 )     1.33460179
  WF centre and spread    5  (  0.424368, -0.286214,  0.085801 )     1.53449827
  WF centre and spread    6  ( -0.325902, -0.015951, -0.361045 )     1.52789295
  WF centre and spread    7  ( -0.484730,  0.113764,  0.266780 )     1.71646967
  WF centre and spread    8  ( -0.208062, -0.518726,  0.048175 )     1.67344053
  WF centre and spread    9  (  0.202617,  0.224703,  0.484561 )     1.72060275
  Sum of centres and spreads ( -0.003309,  0.001944,  0.002807 )    13.10793246

     43    -0.378E-03     0.0148858031       13.1079324571       1.64  <-- CONV
        O_D=      0.0032908 O_OD=      2.3525375 O_TOT=     13.1079325 <-- SPRD
 Delta: O_D= -0.3943407E-04 O_OD= -0.3384767E-03 O_TOT= -0.3779108E-03 <-- DLTA
 ------------------------------------------------------------------------------
 Cycle:     44
  WF centre and spread    1  ( -0.039315,  0.550361, -0.150455 )     1.71460039
  WF centre and spread    2  (  0.002619, -0.061886,  0.110386 )     0.71019901
  WF centre and spread    3  (  0.281604,  0.141899, -0.120895 )     1.17275790
  WF centre and spread    4  (  0.142853, -0.145663, -0.361356 )     1.33500442
  WF centre and spread    5  (  0.424636, -0.286348,  0.085952 )     1.53517311
  WF centre and spread    6  ( -0.325994, -0.015852, -0.360993 )     1.52795911
  WF centre and spread    7  ( -0.484295,  0.113624,  0.266948 )     1.71615004
  WF centre and spread    8  ( -0.208269, -0.518962,  0.048399 )     1.67414255
  WF centre and spread    9  (  0.202825,  0.224762,  0.484836 )     1.72144128
  Sum of centres and spreads ( -0.003336,  0.001933,  0.002821 )    13.10742782

     44    -0.505E-03     0.0111885861       13.1074278238       1.68  <-- CONV
        O_D=      0.0033107 O_OD=      2.3520129 O_TOT=     13.1074278 <-- SPRD
 Delta: O_D=  0.1997214E-04 O_OD= -0.5246055E-03 O_TOT= -0.5046334E-03 <-- DLTA
 ------------------------------------------------------------------------------
 Cycle:     45
  WF centre and spread    1  ( -0.039367,  0.550547, -0.150956 )     1.71549876
  WF centre and spread    2  (  0.002562, -0.060951,  0.108915 )     0.70718559
  WF centre and spread    3  (  0.280346,  0.141390, -0.120335 )     1.16980360
  WF centre and spread    4  (  0.143072, -0.145614, -0.361529 )     1.33569812
  WF centre and spread    5  (  0.425151, -0.286603,  0.086241 )     1.53655343
  WF centre and spread    6  ( -0.326176, -0.015666, -0.360915 )     1.52815289
  WF centre and spread    7  ( -0.483517,  0.113368,  0.267256 )     1.71548599
  WF centre and spread    8  ( -0.208651, -0.519428,  0.048809 )     1.67544603
  WF centre and spread    9  (  0.203210,  0.224873,  0.485361 )     1.72296376
  Sum of centres and spreads ( -0.003371,  0.001916,  0.002847 )    13.10678818

     45    -0.640E-03     0.0133271811       13.1067881758       1.72  <-- CONV
        O_D=      0.0033688 O_OD=      2.3513151 O_TOT=     13.1067882 <-- SPRD
 Delta: O_D=  0.5811845E-04 O_OD= -0.6977665E-03 O_TOT= -0.6396480E-03 <-- DLTA
 ------------------------------------------------------------------------------
 Cycle:     46
  WF centre and spread    1  ( -0.039458,  0.550899, -0.151754 )     1.71693510
  WF centre and spread    2  (  0.002475, -0.059485,  0.106609 )     0.70256256
  WF centre and spread    3  (  0.278377,  0.140589, -0.119443 )     1.16517030
  WF centre and spread    4  (  0.143430, -0.145543, -0.361847 )     1.33676446
  WF centre and spread    5  (  0.426003, -0.287018,  0.086719 )     1.53895039
  WF centre and spread    6  ( -0.326483, -0.015357, -0.360807 )     1.52844035
  WF centre and spread    7  ( -0.482303,  0.112962,  0.267736 )     1.71437343
  WF centre and spread    8  ( -0.209255, -0.520207,  0.049462 )     1.67750609
  WF centre and spread    9  (  0.203820,  0.225050,  0.486214 )     1.72526444
  Sum of centres and spreads ( -0.003394,  0.001891,  0.002889 )    13.10596710

     46    -0.821E-03     0.0150128931       13.1059671037       1.76  <-- CONV
        O_D=      0.0034840 O_OD=      2.3503789 O_TOT=     13.1059671 <-- SPRD
 Delta: O_D=  0.1151132E-03 O_OD= -0.9361853E-03 O_TOT= -0.8210720E-03 <-- DLTA
 ------------------------------------------------------------------------------
 Cycle:     47
  WF centre and spread    1  ( -0.039637,  0.551622, -0.153288 )     1.71940322
  WF centre and spread    2  (  0.002320, -0.056685,  0.102206 )     0.69402799
  WF centre and spread    3  (  0.274590,  0.139028, -0.117687 )     1.15645702
  WF centre and spread    4  (  0.144137, -0.145404, -0.362515 )     1.33892284
  WF centre and spread    5  (  0.427668, -0.287807,  0.087656 )     1.54386601
  WF centre and spread    6  ( -0.327084, -0.014738, -0.360590 )     1.52868783
  WF centre and spread    7  ( -0.479957,  0.112172,  0.268627 )     1.71238627
  WF centre and spread    8  ( -0.210398, -0.521723,  0.050726 )     1.68147765
  WF centre and spread    9  (  0.204975,  0.225370,  0.487834 )     1.72934484
  Sum of centres and spreads ( -0.003387,  0.001835,  0.002972 )    13.10457367

     47    -0.139E-02     0.0172138750       13.1045736691       1.80  <-- CONV
        O_D=      0.0037169 O_OD=      2.3487525 O_TOT=     13.1045737 <-- SPRD
 Delta: O_D=  0.2329220E-03 O_OD= -0.1626357E-02 O_TOT= -0.1393435E-02 <-- DLTA
 ------------------------------------------------------------------------------
 Cycle:     48
  WF centre and spread    1  ( -0.039882,  0.552640, -0.155508 )     1.72240103
  WF centre and spread    2  (  0.002114, -0.052662,  0.095858 )     0.68215699
  WF centre and spread    3  (  0.269027,  0.136692, -0.115039 )     1.14404843
  WF centre and spread    4  (  0.145178, -0.145183, -0.363507 )     1.34237179
  WF centre and spread    5  (  0.430048, -0.288895,  0.089015 )     1.55118825
  WF centre and spread    6  ( -0.327935, -0.013815, -0.360206 )     1.52844279
  WF centre and spread    7  ( -0.476480,  0.111008,  0.269864 )     1.70992803
  WF centre and spread    8  ( -0.212015, -0.523842,  0.052561 )     1.68729500
  WF centre and spread    9  (  0.206601,  0.225781,  0.490058 )     1.73481863
  Sum of centres and spreads ( -0.003342,  0.001724,  0.003098 )    13.10265095

     48    -0.192E-02     0.0235046779       13.1026509485       1.84  <-- CONV
        O_D=      0.0040702 O_OD=      2.3464765 O_TOT=     13.1026509 <-- SPRD
 Delta: O_D=  0.3533597E-03 O_OD= -0.2276080E-02 O_TOT= -0.1922721E-02 <-- DLTA
 ------------------------------------------------------------------------------
 Cycle:     49
  WF centre and spread    1  ( -0.039871,  0.552661, -0.155560 )     1.72188514
  WF centre and spread    2  (  0.002112, -0.052556,  0.095698 )     0.68186881
  WF centre and spread    3  (  0.268860,  0.136607, -0.114938 )     1.14377776
  WF centre and spread    4  (  0.145200, -0.145173, -0.363544 )     1.34245681
  WF centre and spread    5  (  0.430104, -0.288902,  0.089040 )     1.55124194
  WF centre and spread    6  ( -0.327948, -0.013784, -0.360170 )     1.52794084
  WF centre and spread    7  ( -0.476376,  0.110974,  0.269878 )     1.70995323
  WF centre and spread    8  ( -0.212036, -0.523889,  0.052617 )     1.68729803
  WF centre and spread    9  (  0.206620,  0.225764,  0.490084 )     1.73454463
  Sum of centres and spreads ( -0.003334,  0.001701,  0.003105 )    13.10096720

     49    -0.168E-02     0.0321972161       13.1009671975       1.88  <-- CONV
        O_D=      0.0037333 O_OD=      2.3451297 O_TOT=     13.1009672 <-- SPRD
 Delta: O_D= -0.3369517E-03 O_OD= -0.1346799E-02 O_TOT= -0.1683751E-02 <-- DLTA
 ------------------------------------------------------------------------------
 Cycle:     50
  WF centre and spread    1  ( -0.039848,  0.552721, -0.155674 )     1.72136063
  WF centre and spread    2  (  0.002106, -0.052329,  0.095355 )     0.68130876
  WF centre and spread    3  (  0.268499,  0.136430, -0.114724 )     1.14323585
  WF centre and spread    4  (  0.145258, -0.145157, -0.363637 )     1.34280956
  WF centre and spread    5  (  0.430232, -0.288921,  0.089097 )     1.55164576
  WF centre and spread    6  ( -0.327984, -0.013722, -0.360101 )     1.52727865
  WF centre and spread    7  ( -0.476156,  0.110905,  0.269910 )     1.71017426
  WF centre and spread    8  ( -0.212089, -0.523997,  0.052740 )     1.68761734
  WF centre and spread    9  (  0.206669,  0.225735,  0.490153 )     1.73438963
  Sum of centres and spreads ( -0.003313,  0.001664,  0.003119 )    13.09982045

     50    -0.115E-02     0.0216494780       13.0998204454       1.91  <-- CONV
        O_D=      0.0035067 O_OD=      2.3442095 O_TOT=     13.0998204 <-- SPRD
 Delta: O_D= -0.2265815E-03 O_OD= -0.9201705E-03 O_TOT= -0.1146752E-02 <-- DLTA
 ------------------------------------------------------------------------------
 Cycle:     51
  WF centre and spread    1  ( -0.039823,  0.552837, -0.155825 )     1.72121730
  WF centre and spread    2  (  0.002097, -0.052050,  0.094928 )     0.68052866
  WF centre and spread    3  (  0.268053,  0.136221, -0.114465 )     1.14235041
  WF centre and spread    4  (  0.145345, -0.145151, -0.363779 )     1.34321005
  WF centre and spread    5  (  0.430417, -0.288959,  0.089174 )     1.55226571
  WF centre and spread    6  ( -0.328047, -0.013652, -0.360037 )     1.52684038
  WF centre and spread    7  ( -0.475898,  0.110830,  0.269964 )     1.71023530
  WF centre and spread    8  ( -0.212173, -0.524156,  0.052897 )     1.68808540
  WF centre and spread    9  (  0.206748,  0.225719,  0.490275 )     1.73446845
  Sum of centres and spreads ( -0.003281,  0.001639,  0.003130 )    13.09920167

     51    -0.619E-03     0.0155001835       13.0992016737       1.95  <-- CONV
        O_D=      0.0033956 O_OD=      2.3437018 O_TOT=     13.0992017 <-- SPRD
 Delta: O_D= -0.1110617E-03 O_OD= -0.5077101E-03 O_TOT= -0.6187718E-03 <-- DLTA
 ------------------------------------------------------------------------------
 Cycle:     52
  WF centre and spread    1  ( -0.039789,  0.553033, -0.156050 )     1.72140774
  WF centre and spread    2  (  0.002083, -0.051662,  0.094331 )     0.67934809
  WF centre and spread    3  (  0.267427,  0.135937, -0.114110 )     1.14090383
  WF centre and spread    4  (  0.145480, -0.145155, -0.363995 )     1.34372742
  WF centre and spread    5  (  0.430694, -0.289025,  0.089287 )     1.55315828
  WF centre and spread    6  ( -0.328153, -0.013563, -0.359968 )     1.52653263
  WF centre and spread    7  ( -0.475551,  0.110737,  0.270053 )     1.71009317
  WF centre and spread    8  ( -0.212305, -0.524393,  0.053123 )     1.68875519
  WF centre and spread    9  (  0.206874,  0.225711,  0.490472 )     1.73478802
  Sum of centres and spreads ( -0.003240,  0.001619,  0.003143 )    13.09871436

     52    -0.487E-03     0.0132098047       13.0987143553       1.99  <-- CONV
        O_D=      0.0033288 O_OD=      2.3432813 O_TOT=     13.0987144 <-- SPRD
 Delta: O_D= -0.6685262E-04 O_OD= -0.4204658E-03 O_TOT= -0.4873184E-03 <-- DLTA
 ------------------------------------------------------------------------------
 Cycle:     53
  WF centre and spread    1  ( -0.039744,  0.553265, -0.156319 )     1.72185530
  WF centre and spread    2  (  0.002066, -0.051212,  0.093632 )     0.67790617
  WF centre and spread    3  (  0.266684,  0.135607, -0.113695 )     1.13908496
  WF centre and spread    4  (  0.145645, -0.145167, -0.364247 )     1.34434706
  WF centre and spread    5  (  0.431016, -0.289105,  0.089413 )     1.55414722
  WF centre and spread    6  ( -0.328283, -0.013471, -0.359893 )     1.52636170
  WF centre and spread    7  ( -0.475152,  0.110637,  0.270168 )     1.70980837
[...]
        O_D=      0.0033149 O_OD=      2.2740693 O_TOT=     13.0294884 <-- SPRD
 Delta: O_D= -0.1137463E-04 O_OD= -0.1180720E-03 O_TOT= -0.1294466E-03 <-- DLTA
 ------------------------------------------------------------------------------
 Cycle:    186
  WF centre and spread    1  (  0.055786,  0.589900, -0.206530 )     1.85192798
  WF centre and spread    2  (  0.002030, -0.016580,  0.039528 )     0.58180114
  WF centre and spread    3  (  0.069673,  0.035994, -0.019408 )     0.63821693
  WF centre and spread    4  (  0.207896, -0.158034, -0.471900 )     1.64686203
  WF centre and spread    5  (  0.452318, -0.229087,  0.089718 )     1.58543287
  WF centre and spread    6  ( -0.349529, -0.005002, -0.309705 )     1.50371417
  WF centre and spread    7  ( -0.438380,  0.145826,  0.275541 )     1.67070836
  WF centre and spread    8  ( -0.211564, -0.564299,  0.117208 )     1.82262654
  WF centre and spread    9  (  0.211472,  0.201453,  0.487146 )     1.72810748
  Sum of centres and spreads ( -0.000298,  0.000171,  0.001597 )    13.02939750

    186    -0.909E-04     0.0055512160       13.0293975016       7.14  <-- CONV
        O_D=      0.0033318 O_OD=      2.2739615 O_TOT=     13.0293975 <-- SPRD
 Delta: O_D=  0.1688936E-04 O_OD= -0.1077735E-03 O_TOT= -0.9088411E-04 <-- DLTA
 ------------------------------------------------------------------------------
 Cycle:    187
  WF centre and spread    1  (  0.055883,  0.589879, -0.206540 )     1.85191343
  WF centre and spread    2  (  0.002031, -0.016572,  0.039510 )     0.58178479
  WF centre and spread    3  (  0.069578,  0.035943, -0.019380 )     0.63803891
  WF centre and spread    4  (  0.207928, -0.158047, -0.471944 )     1.64701094
  WF centre and spread    5  (  0.452283, -0.229013,  0.089707 )     1.58532785
  WF centre and spread    6  ( -0.349549, -0.004990, -0.309695 )     1.50376300
  WF centre and spread    7  ( -0.438375,  0.145878,  0.275539 )     1.67071788
  WF centre and spread    8  ( -0.211542, -0.564331,  0.117262 )     1.82270059
  WF centre and spread    9  (  0.211466,  0.201424,  0.487134 )     1.72805100
  Sum of centres and spreads ( -0.000299,  0.000172,  0.001593 )    13.02930839

    187    -0.891E-04     0.0072779059       13.0293083950       7.18  <-- CONV
        O_D=      0.0033163 O_OD=      2.2738879 O_TOT=     13.0293084 <-- SPRD
 Delta: O_D= -0.1550166E-04 O_OD= -0.7360501E-04 O_TOT= -0.8910667E-04 <-- DLTA
 ------------------------------------------------------------------------------
 Cycle:    188
  WF centre and spread    1  (  0.056259,  0.589804, -0.206576 )     1.85192114
  WF centre and spread    2  (  0.002035, -0.016544,  0.039439 )     0.58172564
  WF centre and spread    3  (  0.069209,  0.035748, -0.019271 )     0.63734340
  WF centre and spread    4  (  0.208051, -0.158097, -0.472118 )     1.64758910
  WF centre and spread    5  (  0.452151, -0.228729,  0.089667 )     1.58495404
  WF centre and spread    6  ( -0.349631, -0.004943, -0.309658 )     1.50399453
  WF centre and spread    7  ( -0.438362,  0.146083,  0.275532 )     1.67075885
  WF centre and spread    8  ( -0.211459, -0.564462,  0.117473 )     1.82302720
  WF centre and spread    9  (  0.211445,  0.201313,  0.487091 )     1.72786864
  Sum of centres and spreads ( -0.000302,  0.000174,  0.001579 )    13.02918255

    188    -0.126E-03     0.0054854422       13.0291825456       7.22  <-- CONV
        O_D=      0.0033273 O_OD=      2.2737510 O_TOT=     13.0291825 <-- SPRD
 Delta: O_D=  0.1107720E-04 O_OD= -0.1369266E-03 O_TOT= -0.1258494E-03 <-- DLTA
 ------------------------------------------------------------------------------
 Cycle:    189
  WF centre and spread    1  (  0.057010,  0.589673, -0.206645 )     1.85201711
  WF centre and spread    2  (  0.002042, -0.016488,  0.039299 )     0.58159334
  WF centre and spread    3  (  0.068477,  0.035360, -0.019057 )     0.63592491
  WF centre and spread    4  (  0.208300, -0.158203, -0.472474 )     1.64868808
  WF centre and spread    5  (  0.451900, -0.228166,  0.089589 )     1.58424544
  WF centre and spread    6  ( -0.349800, -0.004851, -0.309589 )     1.50449863
  WF centre and spread    7  ( -0.438343,  0.146494,  0.275521 )     1.67078922
  WF centre and spread    8  ( -0.211295, -0.564740,  0.117894 )     1.82371108
  WF centre and spread    9  (  0.211405,  0.201097,  0.487017 )     1.72753195
  Sum of centres and spreads ( -0.000304,  0.000177,  0.001556 )    13.02899976

    189    -0.183E-03     0.0071470286       13.0289997647       7.26  <-- CONV
        O_D=      0.0033516 O_OD=      2.2735439 O_TOT=     13.0289998 <-- SPRD
 Delta: O_D=  0.2428807E-04 O_OD= -0.2070690E-03 O_TOT= -0.1827809E-03 <-- DLTA
 ------------------------------------------------------------------------------
 Cycle:    190
  WF centre and spread    1  (  0.058171,  0.589492, -0.206743 )     1.85224542
  WF centre and spread    2  (  0.002055, -0.016404,  0.039084 )     0.58136826
  WF centre and spread    3  (  0.067351,  0.034764, -0.018727 )     0.63369559
  WF centre and spread    4  (  0.208686, -0.158372, -0.473037 )     1.65031331
  WF centre and spread    5  (  0.451529, -0.227299,  0.089469 )     1.58319162
  WF centre and spread    6  ( -0.350072, -0.004710, -0.309490 )     1.50530934
  WF centre and spread    7  ( -0.438325,  0.147135,  0.275505 )     1.67078491
  WF centre and spread    8  ( -0.211042, -0.565193,  0.118545 )     1.82481285
  WF centre and spread    9  (  0.211346,  0.200769,  0.486922 )     1.72704520
  Sum of centres and spreads ( -0.000301,  0.000183,  0.001527 )    13.02876651

    190    -0.233E-03     0.0080300179       13.0287665132       7.29  <-- CONV
        O_D=      0.0034088 O_OD=      2.2732535 O_TOT=     13.0287665 <-- SPRD
 Delta: O_D=  0.5713671E-04 O_OD= -0.2903883E-03 O_TOT= -0.2332516E-03 <-- DLTA
 ------------------------------------------------------------------------------
 Cycle:    191
  WF centre and spread    1  (  0.060194,  0.589186, -0.206895 )     1.85262808
  WF centre and spread    2  (  0.002076, -0.016257,  0.038708 )     0.58095544
  WF centre and spread    3  (  0.065399,  0.033730, -0.018160 )     0.62982744
  WF centre and spread    4  (  0.209355, -0.158673, -0.474024 )     1.65310663
  WF centre and spread    5  (  0.450888, -0.225783,  0.089257 )     1.58136540
  WF centre and spread    6  ( -0.350550, -0.004460, -0.309318 )     1.50668998
  WF centre and spread    7  ( -0.438300,  0.148256,  0.275472 )     1.67083953
  WF centre and spread    8  ( -0.210589, -0.566001,  0.119680 )     1.82678185
  WF centre and spread    9  (  0.211240,  0.200198,  0.486769 )     1.72621187
  Sum of centres and spreads ( -0.000287,  0.000194,  0.001489 )    13.02840625

    191    -0.360E-03     0.0092630312       13.0284062484       7.33  <-- CONV
        O_D=      0.0035073 O_OD=      2.2727947 O_TOT=     13.0284062 <-- SPRD
 Delta: O_D=  0.9849563E-04 O_OD= -0.4587604E-03 O_TOT= -0.3602648E-03 <-- DLTA
 ------------------------------------------------------------------------------
 Cycle:    192
  WF centre and spread    1  (  0.062961,  0.588739, -0.207080 )     1.85296467
  WF centre and spread    2  (  0.002104, -0.016057,  0.038191 )     0.58038874
  WF centre and spread    3  (  0.062746,  0.032321, -0.017396 )     0.62468498
  WF centre and spread    4  (  0.210255, -0.159081, -0.475355 )     1.65696934
  WF centre and spread    5  (  0.449988, -0.223697,  0.088959 )     1.57881901
  WF centre and spread    6  ( -0.351195, -0.004108, -0.309081 )     1.50846550
  WF centre and spread    7  ( -0.438256,  0.149791,  0.275415 )     1.67111743
  WF centre and spread    8  ( -0.209941, -0.567103,  0.121238 )     1.82948944
  WF centre and spread    9  (  0.211085,  0.199406,  0.486557 )     1.72504583
  Sum of centres and spreads ( -0.000253,  0.000210,  0.001448 )    13.02794493

    192    -0.461E-03     0.0116759849       13.0279449341       7.37  <-- CONV
        O_D=      0.0036417 O_OD=      2.2721989 O_TOT=     13.0279449 <-- SPRD
 Delta: O_D=  0.1344838E-03 O_OD= -0.5957981E-03 O_TOT= -0.4613143E-03 <-- DLTA
 ------------------------------------------------------------------------------
 Cycle:    193
  WF centre and spread    1  (  0.063049,  0.588718, -0.207078 )     1.85279993
  WF centre and spread    2  (  0.002106, -0.016050,  0.038175 )     0.58035342
  WF centre and spread    3  (  0.062670,  0.032278, -0.017373 )     0.62452307
  WF centre and spread    4  (  0.210274, -0.159092, -0.475386 )     1.65708759
  WF centre and spread    5  (  0.449955, -0.223624,  0.088947 )     1.57867090
  WF centre and spread    6  ( -0.351214, -0.004093, -0.309073 )     1.50840904
  WF centre and spread    7  ( -0.438251,  0.149835,  0.275405 )     1.67120751
  WF centre and spread    8  ( -0.209908, -0.567134,  0.121288 )     1.82951559
  WF centre and spread    9  (  0.211074,  0.199372,  0.486546 )     1.72493603
  Sum of centres and spreads ( -0.000245,  0.000210,  0.001451 )    13.02750308

    193    -0.442E-03     0.0163685158       13.0275030763       7.41  <-- CONV
        O_D=      0.0035032 O_OD=      2.2718956 O_TOT=     13.0275031 <-- SPRD
 Delta: O_D= -0.1385445E-03 O_OD= -0.3033134E-03 O_TOT= -0.4418579E-03 <-- DLTA
 ------------------------------------------------------------------------------
 Cycle:    194
  WF centre and spread    1  (  0.063253,  0.588674, -0.207072 )     1.85259675
  WF centre and spread    2  (  0.002108, -0.016035,  0.038137 )     0.58029536
  WF centre and spread    3  (  0.062492,  0.032181, -0.017320 )     0.62416965
  WF centre and spread    4  (  0.210323, -0.159121, -0.475463 )     1.65738532
  WF centre and spread    5  (  0.449881, -0.223457,  0.088918 )     1.57841822
  WF centre and spread    6  ( -0.351259, -0.004062, -0.309058 )     1.50840524
  WF centre and spread    7  ( -0.438240,  0.149940,  0.275387 )     1.67143366
  WF centre and spread    8  ( -0.209837, -0.567210,  0.121401 )     1.82968005
  WF centre and spread    9  (  0.211052,  0.199299,  0.486526 )     1.72479156
  Sum of centres and spreads ( -0.000228,  0.000209,  0.001457 )    13.02717582

    194    -0.327E-03     0.0112506976       13.0271758226       7.45  <-- CONV
        O_D=      0.0034049 O_OD=      2.2716667 O_TOT=     13.0271758 <-- SPRD
 Delta: O_D= -0.9833716E-04 O_OD= -0.2289165E-03 O_TOT= -0.3272537E-03 <-- DLTA
 ------------------------------------------------------------------------------
 Cycle:    195
  WF centre and spread    1  (  0.063523,  0.588631, -0.207066 )     1.85249356
  WF centre and spread    2  (  0.002111, -0.016016,  0.038087 )     0.58021629
  WF centre and spread    3  (  0.062258,  0.032054, -0.017251 )     0.62368220
  WF centre and spread    4  (  0.210395, -0.159166, -0.475574 )     1.65771268
  WF centre and spread    5  (  0.449793, -0.223244,  0.088881 )     1.57814160
  WF centre and spread    6  ( -0.351330, -0.004025, -0.309046 )     1.50852160
  WF centre and spread    7  ( -0.438236,  0.150084,  0.275370 )     1.67160432
  WF centre and spread    8  ( -0.209755, -0.567321,  0.121554 )     1.82993512
  WF centre and spread    9  (  0.211030,  0.199211,  0.486511 )     1.72466450
  Sum of centres and spreads ( -0.000211,  0.000209,  0.001465 )    13.02697187

    195    -0.204E-03     0.0087249367       13.0269718692       7.49  <-- CONV
        O_D=      0.0033519 O_OD=      2.2715158 O_TOT=     13.0269719 <-- SPRD
 Delta: O_D= -0.5299583E-04 O_OD= -0.1509576E-03 O_TOT= -0.2039534E-03 <-- DLTA
 ------------------------------------------------------------------------------
 Cycle:    196
  WF centre and spread    1  (  0.063878,  0.588586, -0.207065 )     1.85247874
  WF centre and spread    2  (  0.002114, -0.015991,  0.038020 )     0.58011414
  WF centre and spread    3  (  0.061952,  0.031890, -0.017163 )     0.62304097
  WF centre and spread    4  (  0.210495, -0.159230, -0.475728 )     1.65808247
  WF centre and spread    5  (  0.449684, -0.222973,  0.088835 )     1.57781387
  WF centre and spread    6  ( -0.351430, -0.003981, -0.309040 )     1.50877155
  WF centre and spread    7  ( -0.438237,  0.150279,  0.275354 )     1.67169855
  WF centre and spread    8  ( -0.209657, -0.567475,  0.121756 )     1.83028038
  WF centre and spread    9  (  0.211008,  0.199103,  0.486502 )     1.72453631
  Sum of centres and spreads ( -0.000193,  0.000209,  0.001472 )    13.02681698

    196    -0.155E-03     0.0074425736       13.0268169819       7.52  <-- CONV
        O_D=      0.0033299 O_OD=      2.2713828 O_TOT=     13.0268170 <-- SPRD
 Delta: O_D= -0.2192234E-04 O_OD= -0.1329649E-03 O_TOT= -0.1548872E-03 <-- DLTA
 ------------------------------------------------------------------------------
 Cycle:    197
  WF centre and spread    1  (  0.064249,  0.588537, -0.207069 )     1.85250276
  WF centre and spread    2  (  0.002118, -0.015965,  0.037949 )     0.58001597
  WF centre and spread    3  (  0.061631,  0.031720, -0.017071 )     0.62239350
  WF centre and spread    4  (  0.210603, -0.159298, -0.475887 )     1.65846082
  WF centre and spread    5  (  0.449569, -0.222694,  0.088786 )     1.57747261
  WF centre and spread    6  ( -0.351538, -0.003937, -0.309038 )     1.50907672
  WF centre and spread    7  ( -0.438240,  0.150486,  0.275342 )     1.67174664
  WF centre and spread    8  ( -0.209560, -0.567633,  0.121971 )     1.83063436
  WF centre and spread    9  (  0.210989,  0.198993,  0.486493 )     1.72440893
  Sum of centres and spreads ( -0.000180,  0.000210,  0.001476 )    13.02671231

    197    -0.105E-03     0.0065364825       13.0267123144       7.56  <-- CONV
        O_D=      0.0033205 O_OD=      2.2712876 O_TOT=     13.0267123 <-- SPRD
 Delta: O_D= -0.9466703E-05 O_OD= -0.9520085E-04 O_TOT= -0.1046675E-03 <-- DLTA
 ------------------------------------------------------------------------------
 Cycle:    198
  WF centre and spread    1  (  0.064669,  0.588470, -0.207081 )     1.85251535
  WF centre and spread    2  (  0.002121, -0.015935,  0.037867 )     0.57992269
  WF centre and spread    3  (  0.061268,  0.031529, -0.016967 )     0.62170402
  WF centre and spread    4  (  0.210725, -0.159374, -0.476059 )     1.65892526
  WF centre and spread    5  (  0.449427, -0.222379,  0.088730 )     1.57706356
  WF centre and spread    6  ( -0.351658, -0.003887, -0.309039 )     1.50943061
  WF centre and spread    7  ( -0.438239,  0.150720,  0.275330 )     1.67180527
  WF centre and spread    8  ( -0.209453, -0.567800,  0.122217 )     1.83101723
  WF centre and spread    9  (  0.210969,  0.198867,  0.486475 )     1.72425446
  Sum of centres and spreads ( -0.000172,  0.000210,  0.001473 )    13.02663844

    198    -0.739E-04     0.0049969708       13.0266384444       7.60  <-- CONV
        O_D=      0.0033345 O_OD=      2.2711997 O_TOT=     13.0266384 <-- SPRD
 Delta: O_D=  0.1405773E-04 O_OD= -0.8792767E-04 O_TOT= -0.7386994E-04 <-- DLTA
 ------------------------------------------------------------------------------
 Cycle:    199
  WF centre and spread    1  (  0.064759,  0.588448, -0.207086 )     1.85249483
  WF centre and spread    2  (  0.002121, -0.015929,  0.037849 )     0.57990688
  WF centre and spread    3  (  0.061191,  0.031488, -0.016945 )     0.62157039
  WF centre and spread    4  (  0.210750, -0.159389, -0.476090 )     1.65903915
  WF centre and spread    5  (  0.449389, -0.222311,  0.088717 )     1.57695469
  WF centre and spread    6  ( -0.351681, -0.003876, -0.309039 )     1.50949577
  WF centre and spread    7  ( -0.438235,  0.150769,  0.275327 )     1.67181881
  WF centre and spread    8  ( -0.209431, -0.567827,  0.122271 )     1.83108191
  WF centre and spread    9  (  0.210964,  0.198838,  0.486466 )     1.72420347
  Sum of centres and spreads ( -0.000173,  0.000211,  0.001470 )    13.02656590

    199    -0.725E-04     0.0065802998       13.0265658965       7.64  <-- CONV
        O_D=      0.0033217 O_OD=      2.2711399 O_TOT=     13.0265659 <-- SPRD
 Delta: O_D= -0.1280548E-04 O_OD= -0.5974247E-04 O_TOT= -0.7254796E-04 <-- DLTA
 ------------------------------------------------------------------------------
 Cycle:    200
  WF centre and spread    1  (  0.065107,  0.588368, -0.207104 )     1.85246905
  WF centre and spread    2  (  0.002123, -0.015903,  0.037778 )     0.57984849
  WF centre and spread    3  (  0.060890,  0.031331, -0.016861 )     0.62104782
  WF centre and spread    4  (  0.210847, -0.159448, -0.476214 )     1.65947922
  WF centre and spread    5  (  0.449249, -0.222048,  0.088668 )     1.57655892
  WF centre and spread    6  ( -0.351774, -0.003833, -0.309043 )     1.50978551
  WF centre and spread    7  ( -0.438224,  0.150961,  0.275318 )     1.67187255
  WF centre and spread    8  ( -0.209344, -0.567942,  0.122481 )     1.83136632
  WF centre and spread    9  (  0.210948,  0.198728,  0.486436 )     1.72403595
  Sum of centres and spreads ( -0.000177,  0.000213,  0.001458 )    13.02646384

    200    -0.102E-03     0.0049428441       13.0264638382       7.68  <-- CONV
        O_D=      0.0033311 O_OD=      2.2710285 O_TOT=     13.0264638 <-- SPRD
 Delta: O_D=  0.9404413E-05 O_OD= -0.1114626E-03 O_TOT= -0.1020582E-03 <-- DLTA
 ------------------------------------------------------------------------------

 Writing checkpoint file ex4.chk... done

 Final State
  WF centre and spread    1  (  0.065107,  0.588368, -0.207104 )     1.85246905
  WF centre and spread    2  (  0.002123, -0.015903,  0.037778 )     0.57984849
  WF centre and spread    3  (  0.060890,  0.031331, -0.016861 )     0.62104782
  WF centre and spread    4  (  0.210847, -0.159448, -0.476214 )     1.65947922
  WF centre and spread    5  (  0.449249, -0.222048,  0.088668 )     1.57655892
  WF centre and spread    6  ( -0.351774, -0.003833, -0.309043 )     1.50978551
  WF centre and spread    7  ( -0.438224,  0.150961,  0.275318 )     1.67187255
  WF centre and spread    8  ( -0.209344, -0.567942,  0.122481 )     1.83136632
  WF centre and spread    9  (  0.210948,  0.198728,  0.486436 )     1.72403595
  Sum of centres and spreads ( -0.000177,  0.000213,  0.001458 )    13.02646384

         Spreads (Ang^2)       Omega I      =    10.752104244
        ================       Omega D      =     0.003331132
                               Omega OD     =     2.271028463
    Final Spread (Ang^2)       Omega Total  =    13.026463838
 ------------------------------------------------------------------------------
 Time for wannierise            7.677 (sec)

 Writing checkpoint file ex4.chk... done

 *---------------------------------------------------------------------------*
 |                               PLOTTING                                    |
 *---------------------------------------------------------------------------*


 Calculating interpolated band-structure

 Time to calculate interpolated band structure       0.773 (sec)

 Time for plotting              0.975 (sec)
 Total Execution Time          10.228 (sec)

 *===========================================================================*
 |                             TIMING INFORMATION                            |
 *===========================================================================*
 |    Tag                                                Ncalls      Time (s)|
 |---------------------------------------------------------------------------|
 |kmesh: get                                        :         1         0.728|
 |overlap: allocate                                 :         1         0.000|
 |overlap: read                                     :         1         0.724|
 |dis: main                                         :         1         0.067|
 |wann: main                                        :         1         7.677|
 |plot: main                                        :         1         0.975|
 *---------------------------------------------------------------------------*

 All done: wannier90 exiting
