
     Program PROJWFC v.6.7MaX starts on 15Jun2021 at 11:40:14 

     This program is part of the open-source Quantum ESPRESSO suite
     for quantum simulation of materials; please cite
         "P. Giannozzi et al., J. Phys.:Condens. Matter 21 395502 (2009);
         "P. Giannozzi et al., J. Phys.:Condens. Matter 29 465901 (2017);
          URL http://www.quantum-espresso.org", 
     in publications or presentations arising from this work. More details at
     http://www.quantum-espresso.org/quote

     Parallel version (MPI & OpenMP), running on       1 processor cores
     Number of MPI processes:                 1
     Threads/MPI process:                     1

     MPI processes distributed on     1 nodes

     Reading xml data from directory:

     ./pb.save/
     file Pb.pbe-dn-kjpaw_psl.0.2.2.UPF: wavefunction(s)  6S renormalized

     IMPORTANT: XC functional enforced from input :
     Exchange-correlation= PBE
                           (   1   4   3   4   0   0   0)
     Any further DFT definition will be discarded
     Please, verify this is what you really want


     G-vector sticks info
     --------------------
     sticks:   dense  smooth     PW     G-vecs:    dense   smooth      PW
     Sum         583     571    199                 9089     8873    1807


     Check: negative core charge=   -0.000003

     Gaussian broadening (read from file): ngauss,degauss=  -1    0.020000


     Calling projwave .... 

  Problem Sizes 
  natomwfc =            9
  nbnd     =           13
  nkstot   =          512
  npwx     =         1139
  nkb      =           18


     Atomic states used for projection
     (read from pseudopotential files):

     state #   1: atom   1 (Pb ), wfc  1 (l=0 m= 1)
     state #   2: atom   1 (Pb ), wfc  2 (l=1 m= 1)
     state #   3: atom   1 (Pb ), wfc  2 (l=1 m= 2)
     state #   4: atom   1 (Pb ), wfc  2 (l=1 m= 3)
     state #   5: atom   1 (Pb ), wfc  3 (l=2 m= 1)
     state #   6: atom   1 (Pb ), wfc  3 (l=2 m= 2)
     state #   7: atom   1 (Pb ), wfc  3 (l=2 m= 3)
     state #   8: atom   1 (Pb ), wfc  3 (l=2 m= 4)
     state #   9: atom   1 (Pb ), wfc  3 (l=2 m= 5)

 k =   0.0000000000  0.0000000000  0.0000000000
==== e(   1) =    -5.81419 eV ==== 
     psi = 1.000*[#   9]
    |psi|^2 = 1.000
==== e(   2) =    -5.81419 eV ==== 
     psi = 0.902*[#   7]+0.098*[#   6]
    |psi|^2 = 1.000
==== e(   3) =    -5.81419 eV ==== 
     psi = 0.902*[#   6]+0.098*[#   7]
    |psi|^2 = 1.000
==== e(   4) =    -5.67524 eV ==== 
     psi = 1.000*[#   5]
    |psi|^2 = 1.000
==== e(   5) =    -5.67524 eV ==== 
     psi = 1.000*[#   8]
    |psi|^2 = 1.000
==== e(   6) =    -0.49675 eV ==== 
     psi = 0.999*[#   1]
    |psi|^2 = 0.999
==== e(   7) =    18.67666 eV ==== 
     psi = 0.913*[#   2]+0.061*[#   3]+0.001*[#   4]
    |psi|^2 = 0.975
==== e(   8) =    18.67666 eV ==== 
     psi = 0.635*[#   3]+0.306*[#   4]+0.035*[#   2]
    |psi|^2 = 0.975
==== e(   9) =    18.67666 eV ==== 
     psi = 0.668*[#   4]+0.279*[#   3]+0.028*[#   2]
    |psi|^2 = 0.975
==== e(  10) =    21.37444 eV ==== 

    |psi|^2 = 0.000
==== e(  11) =    22.58019 eV ==== 

    |psi|^2 = 0.000
==== e(  12) =    23.75980 eV ==== 

    |psi|^2 = 0.000
==== e(  13) =    23.75980 eV ==== 

    |psi|^2 = 0.000

 k =  -0.1250000000  0.1250000000 -0.1250000000
==== e(   1) =    -5.81507 eV ==== 
     psi = 0.333*[#   6]+0.333*[#   7]+0.333*[#   9]
    |psi|^2 = 1.000
==== e(   2) =    -5.79435 eV ==== 
     psi = 0.649*[#   9]+0.164*[#   6]+0.161*[#   7]+0.025*[#   5]
    |psi|^2 = 1.000
==== e(   3) =    -5.79435 eV ==== 
     psi = 0.488*[#   7]+0.486*[#   6]+0.025*[#   8]
    |psi|^2 = 1.000
==== e(   4) =    -5.67464 eV ==== 
     psi = 0.975*[#   5]+0.017*[#   9]+0.004*[#   6]+0.004*[#   7]
    |psi|^2 = 1.000
==== e(   5) =    -5.67464 eV ==== 
     psi = 0.975*[#   8]+0.013*[#   6]+0.013*[#   7]
    |psi|^2 = 1.000
==== e(   6) =    -0.19622 eV ==== 
     psi = 0.826*[#   1]+0.058*[#   2]+0.058*[#   3]+0.058*[#   4]
    |psi|^2 = 0.999
==== e(   7) =    15.87672 eV ==== 
     psi = 0.255*[#   2]+0.255*[#   3]+0.255*[#   4]+0.161*[#   1]
    |psi|^2 = 0.926
==== e(   8) =    18.32226 eV ==== 
     psi = 0.640*[#   2]+0.160*[#   3]+0.160*[#   4]
    |psi|^2 = 0.961
==== e(   9) =    18.32226 eV ==== 
     psi = 0.480*[#   4]+0.480*[#   3]
    |psi|^2 = 0.961
==== e(  10) =    20.79913 eV ==== 
     psi = 0.010*[#   2]+0.010*[#   3]+0.010*[#   4]+0.006*[#   1]
    |psi|^2 = 0.035
==== e(  11) =    23.80599 eV ==== 

    |psi|^2 = 0.002
==== e(  12) =    24.38893 eV ==== 
     psi = 0.017*[#   2]+0.004*[#   3]+0.004*[#   4]
    |psi|^2 = 0.026
==== e(  13) =    24.38893 eV ==== 
     psi = 0.013*[#   4]+0.013*[#   3]
    |psi|^2 = 0.026

 k =  -0.2500000000  0.2500000000 -0.2500000000
==== e(   1) =    -5.82231 eV ==== 
     psi = 0.332*[#   6]+0.332*[#   7]+0.332*[#   9]+0.004*[#   1]
    |psi|^2 = 1.000
==== e(   2) =    -5.77889 eV ==== 
     psi = 0.457*[#   9]+0.314*[#   5]+0.114*[#   6]+0.114*[#   7]
    |psi|^2 = 1.000
==== e(   3) =    -5.77889 eV ==== 
     psi = 0.343*[#   6]+0.343*[#   7]+0.314*[#   8]
    |psi|^2 = 1.000
==== e(   4) =    -5.63965 eV ==== 
     psi = 0.686*[#   5]+0.209*[#   9]+0.052*[#   6]+0.052*[#   7]
    |psi|^2 = 1.000
==== e(   5) =    -5.63965 eV ==== 
     psi = 0.686*[#   8]+0.157*[#   6]+0.157*[#   7]
    |psi|^2 = 1.000
==== e(   6) =     0.70011 eV ==== 
     psi = 0.687*[#   1]+0.103*[#   2]+0.103*[#   3]+0.103*[#   4]
    |psi|^2 = 0.999
==== e(   7) =    12.01393 eV ==== 
     psi = 0.288*[#   1]+0.215*[#   2]+0.215*[#   3]+0.215*[#   4]
    |psi|^2 = 0.934
==== e(   8) =    17.63588 eV ==== 
     psi = 0.641*[#   2]+0.162*[#   4]+0.159*[#   3]
    |psi|^2 = 0.962
==== e(   9) =    17.63588 eV ==== 
     psi = 0.482*[#   3]+0.479*[#   4]
    |psi|^2 = 0.962
==== e(  10) =    20.37944 eV ==== 
     psi = 0.012*[#   1]+0.008*[#   2]+0.008*[#   3]+0.008*[#   4]
    |psi|^2 = 0.037
==== e(  11) =    22.99278 eV ==== 
     psi = 0.007*[#   1]+0.004*[#   2]+0.004*[#   3]+0.004*[#   4]
    |psi|^2 = 0.017
==== e(  12) =    23.71623 eV ==== 
     psi = 0.013*[#   2]+0.003*[#   4]+0.003*[#   3]
    |psi|^2 = 0.019
==== e(  13) =    23.71623 eV ==== 
     psi = 0.009*[#   3]+0.009*[#   4]
    |psi|^2 = 0.019

 k =  -0.3750000000  0.3750000000 -0.3750000000
==== e(   1) =    -5.83575 eV ==== 
     psi = 0.330*[#   6]+0.330*[#   7]+0.330*[#   9]+0.010*[#   1]
    |psi|^2 = 1.000
==== e(   2) =    -5.79423 eV ==== 
     psi = 0.524*[#   5]+0.317*[#   9]+0.079*[#   6]+0.079*[#   7]
    |psi|^2 = 1.000
==== e(   3) =    -5.79423 eV ==== 
     psi = 0.524*[#   8]+0.238*[#   6]+0.238*[#   7]
    |psi|^2 = 1.000
==== e(   4) =    -5.57224 eV ==== 
     psi = 0.476*[#   5]+0.349*[#   9]+0.087*[#   6]+0.087*[#   7]
    |psi|^2 = 1.000
==== e(   5) =    -5.57224 eV ==== 
     psi = 0.476*[#   8]+0.262*[#   6]+0.262*[#   7]
    |psi|^2 = 1.000
==== e(   6) =     2.09008 eV ==== 
     psi = 0.756*[#   1]+0.078*[#   2]+0.078*[#   3]+0.078*[#   4]+0.002*[#   6]
          +0.002*[#   7]+0.002*[#   9]
    |psi|^2 = 0.999
==== e(   7) =     8.72913 eV ==== 
     psi = 0.250*[#   2]+0.250*[#   3]+0.250*[#   4]+0.225*[#   1]
    |psi|^2 = 0.977
==== e(   8) =    17.07146 eV ==== 
     psi = 0.651*[#   2]+0.168*[#   3]+0.158*[#   4]
    |psi|^2 = 0.977
==== e(   9) =    17.07146 eV ==== 
     psi = 0.493*[#   4]+0.484*[#   3]
    |psi|^2 = 0.977
==== e(  10) =    20.35345 eV ==== 
     psi = 0.005*[#   1]+0.003*[#   2]+0.003*[#   3]+0.003*[#   4]
    |psi|^2 = 0.014
==== e(  11) =    21.61097 eV ==== 
     psi = 0.004*[#   1]+0.001*[#   2]+0.001*[#   3]+0.001*[#   4]
    |psi|^2 = 0.007
==== e(  12) =    22.79097 eV ==== 
     psi = 0.003*[#   2]
    |psi|^2 = 0.005
==== e(  13) =    22.79097 eV ==== 
     psi = 0.003*[#   3]+0.003*[#   4]
    |psi|^2 = 0.005

 k =  -0.5000000000  0.5000000000 -0.5000000000
==== e(   1) =    -5.84286 eV ==== 
     psi = 0.329*[#   6]+0.329*[#   7]+0.329*[#   9]+0.012*[#   1]
    |psi|^2 = 1.000
==== e(   2) =    -5.80368 eV ==== 
     psi = 0.570*[#   5]+0.286*[#   9]+0.072*[#   6]+0.072*[#   7]
    |psi|^2 = 1.000
==== e(   3) =    -5.80368 eV ==== 
     psi = 0.570*[#   8]+0.215*[#   6]+0.215*[#   7]
    |psi|^2 = 1.000
==== e(   4) =    -5.54073 eV ==== 
     psi = 0.430*[#   5]+0.380*[#   9]+0.095*[#   6]+0.095*[#   7]
    |psi|^2 = 1.000
==== e(   5) =    -5.54073 eV ==== 
     psi = 0.430*[#   8]+0.285*[#   6]+0.285*[#   7]
    |psi|^2 = 1.000
==== e(   6) =     3.12503 eV ==== 
     psi = 0.983*[#   1]+0.004*[#   6]+0.004*[#   7]+0.004*[#   9]
    |psi|^2 = 0.995
==== e(   7) =     7.05115 eV ==== 
     psi = 0.333*[#   2]+0.333*[#   3]+0.333*[#   4]
    |psi|^2 = 0.998
==== e(   8) =    16.85812 eV ==== 
     psi = 0.583*[#   2]+0.368*[#   3]+0.032*[#   4]
    |psi|^2 = 0.984
==== e(   9) =    16.85812 eV ==== 
     psi = 0.624*[#   4]+0.288*[#   3]+0.072*[#   2]
    |psi|^2 = 0.984
==== e(  10) =    20.72363 eV ==== 
     psi = 0.005*[#   1]
    |psi|^2 = 0.005
==== e(  11) =    20.77321 eV ==== 

    |psi|^2 = 0.000
==== e(  12) =    22.47796 eV ==== 

    |psi|^2 = 0.000
==== e(  13) =    22.47796 eV ==== 

    |psi|^2 = 0.000

 k =  -0.6250000000  0.6250000000 -0.6250000000
==== e(   1) =    -5.83575 eV ==== 
     psi = 0.330*[#   6]+0.330*[#   7]+0.330*[#   9]+0.010*[#   1]
    |psi|^2 = 1.000
==== e(   2) =    -5.79423 eV ==== 
     psi = 0.524*[#   5]+0.317*[#   9]+0.079*[#   6]+0.079*[#   7]
    |psi|^2 = 1.000
==== e(   3) =    -5.79423 eV ==== 
     psi = 0.524*[#   8]+0.238*[#   6]+0.238*[#   7]
    |psi|^2 = 1.000
==== e(   4) =    -5.57224 eV ==== 
     psi = 0.476*[#   5]+0.349*[#   9]+0.087*[#   6]+0.087*[#   7]
    |psi|^2 = 1.000
==== e(   5) =    -5.57224 eV ==== 
     psi = 0.476*[#   8]+0.262*[#   6]+0.262*[#   7]
    |psi|^2 = 1.000
==== e(   6) =     2.09008 eV ==== 
     psi = 0.756*[#   1]+0.078*[#   2]+0.078*[#   3]+0.078*[#   4]+0.002*[#   6]
          +0.002*[#   7]+0.002*[#   9]
    |psi|^2 = 0.999
==== e(   7) =     8.72913 eV ==== 
     psi = 0.250*[#   2]+0.250*[#   3]+0.250*[#   4]+0.225*[#   1]
    |psi|^2 = 0.977
==== e(   8) =    17.07146 eV ==== 
     psi = 0.651*[#   2]+0.165*[#   4]+0.160*[#   3]
    |psi|^2 = 0.977
==== e(   9) =    17.07146 eV ==== 
     psi = 0.491*[#   3]+0.486*[#   4]
    |psi|^2 = 0.977
==== e(  10) =    20.35345 eV ==== 
     psi = 0.005*[#   1]+0.003*[#   2]+0.003*[#   3]+0.003*[#   4]
    |psi|^2 = 0.014
==== e(  11) =    21.61097 eV ==== 
     psi = 0.004*[#   1]+0.001*[#   2]+0.001*[#   3]+0.001*[#   4]
    |psi|^2 = 0.007
==== e(  12) =    22.79097 eV ==== 
     psi = 0.003*[#   2]
    |psi|^2 = 0.005
==== e(  13) =    22.79097 eV ==== 
     psi = 0.003*[#   3]+0.002*[#   4]
    |psi|^2 = 0.005

 k =  -0.7500000000  0.7500000000 -0.7500000000
==== e(   1) =    -5.82231 eV ==== 
     psi = 0.332*[#   6]+0.332*[#   7]+0.332*[#   9]+0.004*[#   1]
    |psi|^2 = 1.000
==== e(   2) =    -5.77889 eV ==== 
     psi = 0.457*[#   9]+0.314*[#   5]+0.114*[#   6]+0.114*[#   7]
    |psi|^2 = 1.000
==== e(   3) =    -5.77889 eV ==== 
     psi = 0.343*[#   6]+0.343*[#   7]+0.314*[#   8]
    |psi|^2 = 1.000
==== e(   4) =    -5.63965 eV ==== 
     psi = 0.686*[#   5]+0.209*[#   9]+0.052*[#   6]+0.052*[#   7]
    |psi|^2 = 1.000
==== e(   5) =    -5.63965 eV ==== 
     psi = 0.686*[#   8]+0.157*[#   6]+0.157*[#   7]
    |psi|^2 = 1.000
==== e(   6) =     0.70011 eV ==== 
     psi = 0.687*[#   1]+0.103*[#   2]+0.103*[#   3]+0.103*[#   4]
    |psi|^2 = 0.999
==== e(   7) =    12.01393 eV ==== 
     psi = 0.288*[#   1]+0.215*[#   2]+0.215*[#   3]+0.215*[#   4]
    |psi|^2 = 0.934
==== e(   8) =    17.63588 eV ==== 
     psi = 0.641*[#   2]+0.160*[#   4]+0.160*[#   3]
    |psi|^2 = 0.962
==== e(   9) =    17.63588 eV ==== 
     psi = 0.481*[#   3]+0.481*[#   4]
    |psi|^2 = 0.962
==== e(  10) =    20.37944 eV ==== 
     psi = 0.012*[#   1]+0.008*[#   2]+0.008*[#   3]+0.008*[#   4]
    |psi|^2 = 0.037
==== e(  11) =    22.99278 eV ==== 
     psi = 0.007*[#   1]+0.004*[#   2]+0.004*[#   3]+0.004*[#   4]
    |psi|^2 = 0.017
==== e(  12) =    23.71623 eV ==== 
     psi = 0.013*[#   2]+0.003*[#   4]+0.003*[#   3]
    |psi|^2 = 0.019
==== e(  13) =    23.71623 eV ==== 
     psi = 0.010*[#   3]+0.009*[#   4]
    |psi|^2 = 0.019

 k =  -0.8750000000  0.8750000000 -0.8750000000
==== e(   1) =    -5.81507 eV ==== 
     psi = 0.333*[#   6]+0.333*[#   7]+0.333*[#   9]
    |psi|^2 = 1.000
==== e(   2) =    -5.79435 eV ==== 
     psi = 0.649*[#   9]+0.163*[#   6]+0.162*[#   7]+0.025*[#   5]
    |psi|^2 = 1.000
==== e(   3) =    -5.79435 eV ==== 
     psi = 0.488*[#   7]+0.487*[#   6]+0.025*[#   8]
    |psi|^2 = 1.000
==== e(   4) =    -5.67464 eV ==== 
     psi = 0.975*[#   5]+0.017*[#   9]+0.004*[#   6]+0.004*[#   7]
    |psi|^2 = 1.000
==== e(   5) =    -5.67464 eV ==== 
     psi = 0.975*[#   8]+0.013*[#   6]+0.013*[#   7]
    |psi|^2 = 1.000
==== e(   6) =    -0.19622 eV ==== 
     psi = 0.826*[#   1]+0.058*[#   2]+0.058*[#   3]+0.058*[#   4]
    |psi|^2 = 0.999
==== e(   7) =    15.87672 eV ==== 
     psi = 0.255*[#   2]+0.255*[#   3]+0.255*[#   4]+0.161*[#   1]
    |psi|^2 = 0.926
==== e(   8) =    18.32226 eV ==== 
     psi = 0.640*[#   2]+0.160*[#   3]+0.160*[#   4]
    |psi|^2 = 0.961
==== e(   9) =    18.32226 eV ==== 
     psi = 0.480*[#   4]+0.480*[#   3]
    |psi|^2 = 0.961
==== e(  10) =    20.79913 eV ==== 
     psi = 0.010*[#   2]+0.010*[#   3]+0.010*[#   4]+0.006*[#   1]
    |psi|^2 = 0.035
==== e(  11) =    23.80599 eV ==== 

    |psi|^2 = 0.002
==== e(  12) =    24.38893 eV ==== 
     psi = 0.017*[#   2]+0.004*[#   3]+0.004*[#   4]
    |psi|^2 = 0.026
==== e(  13) =    24.38893 eV ==== 
     psi = 0.013*[#   4]+0.013*[#   3]
    |psi|^2 = 0.026

 k =   0.1250000000  0.1250000000  0.1250000000
==== e(   1) =    -5.81507 eV ==== 
     psi = 0.333*[#   6]+0.333*[#   7]+0.333*[#   9]
    |psi|^2 = 1.000
==== e(   2) =    -5.79435 eV ==== 
     psi = 0.649*[#   9]+0.163*[#   6]+0.162*[#   7]+0.025*[#   5]
    |psi|^2 = 1.000
==== e(   3) =    -5.79435 eV ==== 
     psi = 0.488*[#   7]+0.487*[#   6]+0.025*[#   8]
    |psi|^2 = 1.000
==== e(   4) =    -5.67464 eV ==== 
     psi = 0.975*[#   5]+0.017*[#   9]+0.004*[#   6]+0.004*[#   7]
    |psi|^2 = 1.000
==== e(   5) =    -5.67464 eV ==== 
     psi = 0.975*[#   8]+0.013*[#   6]+0.013*[#   7]
    |psi|^2 = 1.000
==== e(   6) =    -0.19622 eV ==== 
     psi = 0.826*[#   1]+0.058*[#   2]+0.058*[#   3]+0.058*[#   4]
    |psi|^2 = 0.999
==== e(   7) =    15.87672 eV ==== 
     psi = 0.255*[#   2]+0.255*[#   3]+0.255*[#   4]+0.161*[#   1]
    |psi|^2 = 0.926
==== e(   8) =    18.32226 eV ==== 
     psi = 0.640*[#   2]+0.161*[#   3]+0.159*[#   4]
    |psi|^2 = 0.961
==== e(   9) =    18.32226 eV ==== 
     psi = 0.481*[#   4]+0.480*[#   3]
    |psi|^2 = 0.961
==== e(  10) =    20.79913 eV ==== 
     psi = 0.010*[#   2]+0.010*[#   3]+0.010*[#   4]+0.006*[#   1]
    |psi|^2 = 0.035
==== e(  11) =    23.80599 eV ==== 

    |psi|^2 = 0.002
==== e(  12) =    24.38893 eV ==== 
     psi = 0.017*[#   2]+0.005*[#   3]+0.004*[#   4]
    |psi|^2 = 0.026
==== e(  13) =    24.38893 eV ==== 
     psi = 0.013*[#   4]+0.013*[#   3]
    |psi|^2 = 0.026

 k =   0.0000000000  0.2500000000  0.0000000000
==== e(   1) =    -5.83822 eV ==== 
     psi = 1.000*[#   6]
    |psi|^2 = 1.000
==== e(   2) =    -5.77154 eV ==== 
     psi = 0.999*[#   9]+0.001*[#   3]
    |psi|^2 = 1.000
==== e(   3) =    -5.77154 eV ==== 
     psi = 0.999*[#   7]+0.001*[#   2]
    |psi|^2 = 1.000
==== e(   4) =    -5.70093 eV ==== 
     psi = 0.750*[#   8]+0.250*[#   5]
    |psi|^2 = 1.000
==== e(   5) =    -5.65735 eV ==== 
     psi = 0.750*[#   5]+0.250*[#   8]
    |psi|^2 = 1.000
==== e(   6) =    -0.09626 eV ==== 
     psi = 0.787*[#   1]+0.212*[#   4]
    |psi|^2 = 0.999
==== e(   7) =    16.66372 eV ==== 
     psi = 0.770*[#   4]+0.209*[#   1]
    |psi|^2 = 0.978
==== e(   8) =    17.26709 eV ==== 
     psi = 0.947*[#   3]+0.001*[#   9]
    |psi|^2 = 0.948
==== e(   9) =    17.26709 eV ==== 
     psi = 0.947*[#   2]+0.001*[#   7]
    |psi|^2 = 0.948
==== e(  10) =    20.21019 eV ==== 

    |psi|^2 = 0.000
==== e(  11) =    22.50074 eV ==== 
     psi = 0.006*[#   4]+0.002*[#   1]
    |psi|^2 = 0.008
==== e(  12) =    25.41533 eV ==== 
     psi = 0.005*[#   4]
    |psi|^2 = 0.006
==== e(  13) =    25.68680 eV ==== 
     psi = 0.021*[#   3]+0.008*[#   2]
    |psi|^2 = 0.029

 k =  -0.1250000000  0.3750000000 -0.1250000000
==== e(   1) =    -5.84791 eV ==== 
     psi = 0.945*[#   6]+0.024*[#   7]+0.024*[#   9]+0.005*[#   8]+0.002*[#   5]
          
    |psi|^2 = 1.000
==== e(   2) =    -5.75354 eV ==== 
     psi = 0.329*[#   8]+0.273*[#   7]+0.273*[#   9]+0.110*[#   5]+0.013*[#   6]
          
    |psi|^2 = 1.000
==== e(   3) =    -5.74009 eV ==== 
     psi = 0.401*[#   7]+0.401*[#   9]+0.147*[#   5]+0.049*[#   8]
    |psi|^2 = 1.000
==== e(   4) =    -5.69805 eV ==== 
     psi = 0.415*[#   8]+0.202*[#   7]+0.202*[#   9]+0.138*[#   5]+0.041*[#   6]
          +0.001*[#   1]
    |psi|^2 = 1.000
==== e(   5) =    -5.62421 eV ==== 
     psi = 0.603*[#   5]+0.201*[#   8]+0.098*[#   7]+0.098*[#   9]
    |psi|^2 = 1.000
==== e(   6) =     0.60203 eV ==== 
     psi = 0.676*[#   1]+0.269*[#   4]+0.026*[#   2]+0.026*[#   3]
    |psi|^2 = 0.999
==== e(   7) =    13.34187 eV ==== 
     psi = 0.271*[#   4]+0.261*[#   1]+0.209*[#   2]+0.209*[#   3]
    |psi|^2 = 0.951
==== e(   8) =    16.36651 eV ==== 
     psi = 0.478*[#   2]+0.478*[#   3]
    |psi|^2 = 0.957
==== e(   9) =    16.77851 eV ==== 
     psi = 0.434*[#   4]+0.209*[#   2]+0.209*[#   3]+0.056*[#   1]
    |psi|^2 = 0.909
==== e(  10) =    20.24537 eV ==== 
     psi = 0.018*[#   2]+0.018*[#   3]+0.008*[#   4]
    |psi|^2 = 0.044
==== e(  11) =    21.45646 eV ==== 
     psi = 0.018*[#   2]+0.018*[#   3]+0.008*[#   4]
    |psi|^2 = 0.044
==== e(  12) =    24.79867 eV ==== 
     psi = 0.012*[#   2]+0.012*[#   3]+0.003*[#   1]
    |psi|^2 = 0.028
==== e(  13) =    25.92687 eV ==== 
     psi = 0.004*[#   2]+0.004*[#   3]+0.001*[#   1]
    |psi|^2 = 0.010

 k =  -0.2500000000  0.5000000000 -0.2500000000
==== e(   1) =    -5.84374 eV ==== 
     psi = 0.812*[#   6]+0.061*[#   8]+0.050*[#   7]+0.050*[#   9]+0.020*[#   5]
          +0.003*[#   1]
    |psi|^2 = 1.000
==== e(   2) =    -5.77744 eV ==== 
     psi = 0.407*[#   8]+0.227*[#   7]+0.227*[#   9]+0.136*[#   5]
    |psi|^2 = 1.000
==== e(   3) =    -5.74865 eV ==== 
     psi = 0.361*[#   5]+0.259*[#   7]+0.259*[#   9]+0.120*[#   8]
    |psi|^2 = 1.000
==== e(   4) =    -5.64006 eV ==== 
     psi = 0.281*[#   8]+0.219*[#   7]+0.219*[#   9]+0.184*[#   6]+0.094*[#   5]
          +0.001*[#   1]
    |psi|^2 = 1.000
==== e(   5) =    -5.56337 eV ==== 
     psi = 0.389*[#   5]+0.240*[#   7]+0.240*[#   9]+0.130*[#   8]
    |psi|^2 = 1.000
==== e(   6) =     1.84305 eV ==== 
     psi = 0.689*[#   1]+0.226*[#   4]+0.039*[#   2]+0.039*[#   3]+0.002*[#   7]
          +0.002*[#   9]
    |psi|^2 = 0.999
==== e(   7) =     9.93279 eV ==== 
     psi = 0.253*[#   2]+0.253*[#   3]+0.250*[#   1]+0.214*[#   4]+0.002*[#   6]
          
    |psi|^2 = 0.974
==== e(   8) =    15.77200 eV ==== 
     psi = 0.529*[#   4]+0.175*[#   2]+0.175*[#   3]+0.051*[#   1]
    |psi|^2 = 0.931
==== e(   9) =    15.91998 eV ==== 
     psi = 0.481*[#   2]+0.481*[#   3]
    |psi|^2 = 0.964
==== e(  10) =    19.53843 eV ==== 
     psi = 0.001*[#   2]+0.001*[#   3]
    |psi|^2 = 0.003
==== e(  11) =    22.93930 eV ==== 
     psi = 0.028*[#   2]+0.028*[#   3]+0.018*[#   4]
    |psi|^2 = 0.075
==== e(  12) =    24.64939 eV ==== 
     psi = 0.011*[#   2]+0.011*[#   3]
    |psi|^2 = 0.021
==== e(  13) =    24.65243 eV ==== 
     psi = 0.004*[#   4]+0.002*[#   1]
    |psi|^2 = 0.007

 k =  -0.3750000000  0.6250000000 -0.3750000000
==== e(   1) =    -5.83670 eV ==== 
     psi = 0.672*[#   6]+0.154*[#   8]+0.058*[#   7]+0.058*[#   9]+0.051*[#   5]
          +0.005*[#   1]+0.001*[#   4]
    |psi|^2 = 1.000
==== e(   2) =    -5.79292 eV ==== 
     psi = 0.298*[#   8]+0.298*[#   7]+0.298*[#   9]+0.099*[#   5]+0.003*[#   1]
          +0.002*[#   4]+0.001*[#   2]+0.001*[#   3]
    |psi|^2 = 1.000
==== e(   3) =    -5.76526 eV ==== 
     psi = 0.438*[#   5]+0.208*[#   7]+0.208*[#   9]+0.146*[#   8]
    |psi|^2 = 1.000
==== e(   4) =    -5.58627 eV ==== 
     psi = 0.322*[#   6]+0.296*[#   8]+0.140*[#   7]+0.140*[#   9]+0.099*[#   5]
          +0.001*[#   2]+0.001*[#   3]
    |psi|^2 = 1.000
==== e(   5) =    -5.53854 eV ==== 
     psi = 0.312*[#   5]+0.292*[#   7]+0.292*[#   9]+0.104*[#   8]
    |psi|^2 = 1.000
==== e(   6) =     3.17714 eV ==== 
     psi = 0.899*[#   1]+0.085*[#   4]+0.004*[#   7]+0.004*[#   9]+0.003*[#   6]
          +0.002*[#   2]+0.002*[#   3]
    |psi|^2 = 0.997
==== e(   7) =     7.57915 eV ==== 
     psi = 0.325*[#   2]+0.325*[#   3]+0.299*[#   4]+0.045*[#   1]+0.002*[#   6]
          +0.001*[#   8]
    |psi|^2 = 0.997
==== e(   8) =    14.87865 eV ==== 
     psi = 0.583*[#   4]+0.161*[#   2]+0.161*[#   3]+0.045*[#   1]+0.001*[#   7]
          +0.001*[#   9]
    |psi|^2 = 0.953
==== e(   9) =    16.04571 eV ==== 
     psi = 0.483*[#   2]+0.483*[#   3]
    |psi|^2 = 0.966
==== e(  10) =    19.40787 eV ==== 
     psi = 0.004*[#   4]+0.001*[#   1]
    |psi|^2 = 0.006
==== e(  11) =    22.69549 eV ==== 
     psi = 0.011*[#   4]+0.006*[#   2]+0.006*[#   3]
    |psi|^2 = 0.023
==== e(  12) =    23.70226 eV ==== 
     psi = 0.009*[#   2]+0.009*[#   3]
    |psi|^2 = 0.019
==== e(  13) =    24.92524 eV ==== 
     psi = 0.003*[#   4]+0.002*[#   2]+0.002*[#   3]
    |psi|^2 = 0.006

 k =  -0.5000000000  0.7500000000 -0.5000000000
==== e(   1) =    -5.81985 eV ==== 
     psi = 0.547*[#   6]+0.143*[#   7]+0.143*[#   9]+0.119*[#   8]+0.040*[#   5]
          +0.006*[#   1]+0.002*[#   4]
    |psi|^2 = 1.000
==== e(   2) =    -5.79803 eV ==== 
     psi = 0.288*[#   8]+0.282*[#   7]+0.282*[#   9]+0.096*[#   5]+0.047*[#   6]
          +0.003*[#   4]+0.001*[#   1]
    |psi|^2 = 1.000
==== e(   3) =    -5.76676 eV ==== 
     psi = 0.451*[#   5]+0.199*[#   7]+0.199*[#   9]+0.150*[#   8]
    |psi|^2 = 1.000
==== e(   4) =    -5.57878 eV ==== 
     psi = 0.301*[#   7]+0.301*[#   9]+0.299*[#   5]+0.100*[#   8]
    |psi|^2 = 1.000
==== e(   5) =    -5.56895 eV ==== 
     psi = 0.401*[#   6]+0.342*[#   8]+0.114*[#   5]+0.070*[#   7]+0.070*[#   9]
          +0.001*[#   2]+0.001*[#   3]
    |psi|^2 = 1.000
==== e(   6) =     2.79818 eV ==== 
     psi = 0.814*[#   1]+0.086*[#   2]+0.086*[#   3]+0.005*[#   6]+0.002*[#   4]
          +0.002*[#   7]+0.002*[#   9]
    |psi|^2 = 0.998
==== e(   7) =     8.17268 eV ==== 
     psi = 0.324*[#   4]+0.266*[#   2]+0.266*[#   3]+0.130*[#   1]+0.001*[#   7]
          +0.001*[#   9]
    |psi|^2 = 0.991
==== e(   8) =    14.43505 eV ==== 
     psi = 0.628*[#   4]+0.139*[#   2]+0.139*[#   3]+0.043*[#   1]+0.002*[#   7]
          +0.002*[#   9]
    |psi|^2 = 0.953
==== e(   9) =    16.75119 eV ==== 
     psi = 0.483*[#   2]+0.483*[#   3]
    |psi|^2 = 0.967
==== e(  10) =    19.91108 eV ==== 
     psi = 0.006*[#   4]+0.002*[#   1]+0.002*[#   2]+0.002*[#   3]
    |psi|^2 = 0.012
==== e(  11) =    22.22153 eV ==== 
     psi = 0.019*[#   4]+0.001*[#   1]
    |psi|^2 = 0.021
==== e(  12) =    23.23537 eV ==== 
     psi = 0.008*[#   2]+0.008*[#   3]
    |psi|^2 = 0.015
==== e(  13) =    25.61143 eV ==== 
     psi = 0.005*[#   4]
    |psi|^2 = 0.006

 k =  -0.6250000000  0.8750000000 -0.6250000000
==== e(   1) =    -5.81318 eV ==== 
     psi = 0.451*[#   7]+0.451*[#   9]+0.090*[#   6]+0.005*[#   4]+0.002*[#   1]
          
    |psi|^2 = 1.000
==== e(   2) =    -5.78360 eV ==== 
     psi = 0.522*[#   6]+0.317*[#   8]+0.106*[#   5]+0.027*[#   7]+0.027*[#   9]
          
    |psi|^2 = 1.000
==== e(   3) =    -5.75159 eV ==== 
     psi = 0.347*[#   5]+0.269*[#   7]+0.269*[#   9]+0.116*[#   8]
    |psi|^2 = 1.000
==== e(   4) =    -5.65999 eV ==== 
     psi = 0.403*[#   5]+0.231*[#   7]+0.231*[#   9]+0.134*[#   8]
    |psi|^2 = 1.000
==== e(   5) =    -5.59581 eV ==== 
     psi = 0.432*[#   8]+0.384*[#   6]+0.144*[#   5]+0.018*[#   7]+0.018*[#   9]
          +0.001*[#   1]
    |psi|^2 = 1.000
==== e(   6) =     1.37724 eV ==== 
     psi = 0.669*[#   1]+0.156*[#   2]+0.156*[#   3]+0.012*[#   4]+0.003*[#   6]
          
    |psi|^2 = 0.999
==== e(   7) =    11.00440 eV ==== 
     psi = 0.280*[#   1]+0.235*[#   2]+0.235*[#   3]+0.209*[#   4]
    |psi|^2 = 0.962
==== e(   8) =    14.58553 eV ==== 
     psi = 0.702*[#   4]+0.096*[#   2]+0.096*[#   3]+0.036*[#   1]+0.002*[#   7]
          +0.002*[#   9]
    |psi|^2 = 0.935
==== e(   9) =    17.85514 eV ==== 
     psi = 0.487*[#   2]+0.487*[#   3]
    |psi|^2 = 0.975
==== e(  10) =    21.00662 eV ==== 
     psi = 0.008*[#   4]+0.003*[#   2]+0.003*[#   3]+0.003*[#   1]
    |psi|^2 = 0.017
==== e(  11) =    22.03379 eV ==== 
     psi = 0.041*[#   4]+0.004*[#   1]
    |psi|^2 = 0.047
==== e(  12) =    23.27389 eV ==== 
     psi = 0.004*[#   2]+0.004*[#   3]
    |psi|^2 = 0.008
==== e(  13) =    25.31642 eV ==== 
     psi = 0.005*[#   4]+0.005*[#   2]+0.005*[#   3]+0.003*[#   1]
    |psi|^2 = 0.018

 k =  -0.7500000000  1.0000000000 -0.7500000000
==== e(   1) =    -5.81889 eV ==== 
     psi = 0.498*[#   7]+0.498*[#   9]+0.003*[#   4]
    |psi|^2 = 1.000
==== e(   2) =    -5.77272 eV ==== 
     psi = 0.803*[#   6]+0.147*[#   8]+0.049*[#   5]
    |psi|^2 = 1.000
==== e(   3) =    -5.76588 eV ==== 
     psi = 0.500*[#   7]+0.500*[#   9]
    |psi|^2 = 1.000
==== e(   4) =    -5.69635 eV ==== 
     psi = 0.750*[#   5]+0.250*[#   8]
    |psi|^2 = 1.000
==== e(   5) =    -5.64166 eV ==== 
     psi = 0.603*[#   8]+0.201*[#   5]+0.195*[#   6]
    |psi|^2 = 1.000
==== e(   6) =     0.30366 eV ==== 
     psi = 0.710*[#   1]+0.144*[#   2]+0.144*[#   3]
    |psi|^2 = 0.999
==== e(   7) =    14.20633 eV ==== 
     psi = 0.337*[#   2]+0.337*[#   3]+0.275*[#   1]
    |psi|^2 = 0.950
==== e(   8) =    15.67983 eV ==== 
     psi = 0.882*[#   4]+0.002*[#   7]+0.002*[#   9]
    |psi|^2 = 0.886
==== e(   9) =    18.70380 eV ==== 
     psi = 0.498*[#   2]+0.498*[#   3]
    |psi|^2 = 0.996
==== e(  10) =    21.58124 eV ==== 
     psi = 0.087*[#   4]
    |psi|^2 = 0.087
==== e(  11) =    22.72955 eV ==== 
     psi = 0.004*[#   1]+0.004*[#   2]+0.004*[#   3]
    |psi|^2 = 0.012
==== e(  12) =    23.73195 eV ==== 
     psi = 0.011*[#   2]+0.011*[#   3]+0.008*[#   1]
    |psi|^2 = 0.031
==== e(  13) =    23.88488 eV ==== 

    |psi|^2 = 0.000

 k =   0.2500000000  0.2500000000  0.2500000000
==== e(   1) =    -5.82231 eV ==== 
     psi = 0.332*[#   6]+0.332*[#   7]+0.332*[#   9]+0.004*[#   1]
    |psi|^2 = 1.000
==== e(   2) =    -5.77889 eV ==== 
     psi = 0.457*[#   9]+0.314*[#   5]+0.114*[#   6]+0.114*[#   7]
    |psi|^2 = 1.000
==== e(   3) =    -5.77889 eV ==== 
     psi = 0.343*[#   6]+0.343*[#   7]+0.314*[#   8]
    |psi|^2 = 1.000
==== e(   4) =    -5.63965 eV ==== 
     psi = 0.686*[#   5]+0.209*[#   9]+0.052*[#   6]+0.052*[#   7]
    |psi|^2 = 1.000
==== e(   5) =    -5.63965 eV ==== 
     psi = 0.686*[#   8]+0.157*[#   6]+0.157*[#   7]
    |psi|^2 = 1.000
==== e(   6) =     0.70011 eV ==== 
     psi = 0.687*[#   1]+0.103*[#   2]+0.103*[#   3]+0.103*[#   4]
    |psi|^2 = 0.999
==== e(   7) =    12.01393 eV ==== 
     psi = 0.288*[#   1]+0.215*[#   2]+0.215*[#   3]+0.215*[#   4]
    |psi|^2 = 0.934
==== e(   8) =    17.63588 eV ==== 
     psi = 0.641*[#   2]+0.161*[#   4]+0.160*[#   3]
    |psi|^2 = 0.962
==== e(   9) =    17.63588 eV ==== 
     psi = 0.481*[#   3]+0.480*[#   4]
    |psi|^2 = 0.962
==== e(  10) =    20.37944 eV ==== 
     psi = 0.012*[#   1]+0.008*[#   2]+0.008*[#   3]+0.008*[#   4]
    |psi|^2 = 0.037
==== e(  11) =    22.99278 eV ==== 
     psi = 0.007*[#   1]+0.004*[#   2]+0.004*[#   3]+0.004*[#   4]
    |psi|^2 = 0.017
==== e(  12) =    23.71623 eV ==== 
     psi = 0.013*[#   2]+0.004*[#   4]+0.003*[#   3]
    |psi|^2 = 0.019
==== e(  13) =    23.71623 eV ==== 
     psi = 0.010*[#   3]+0.009*[#   4]
    |psi|^2 = 0.019

 k =   0.1250000000  0.3750000000  0.1250000000
==== e(   1) =    -5.84791 eV ==== 
     psi = 0.945*[#   6]+0.024*[#   7]+0.024*[#   9]+0.005*[#   8]+0.002*[#   5]
          
    |psi|^2 = 1.000
==== e(   2) =    -5.75354 eV ==== 
     psi = 0.329*[#   8]+0.273*[#   7]+0.273*[#   9]+0.110*[#   5]+0.013*[#   6]
          
    |psi|^2 = 1.000
==== e(   3) =    -5.74009 eV ==== 
     psi = 0.401*[#   7]+0.401*[#   9]+0.147*[#   5]+0.049*[#   8]
    |psi|^2 = 1.000
==== e(   4) =    -5.69805 eV ==== 
     psi = 0.415*[#   8]+0.202*[#   7]+0.202*[#   9]+0.138*[#   5]+0.041*[#   6]
          +0.001*[#   1]
    |psi|^2 = 1.000
==== e(   5) =    -5.62421 eV ==== 
     psi = 0.603*[#   5]+0.201*[#   8]+0.098*[#   7]+0.098*[#   9]
    |psi|^2 = 1.000
==== e(   6) =     0.60203 eV ==== 
     psi = 0.676*[#   1]+0.269*[#   4]+0.026*[#   2]+0.026*[#   3]
    |psi|^2 = 0.999
==== e(   7) =    13.34187 eV ==== 
     psi = 0.271*[#   4]+0.261*[#   1]+0.209*[#   2]+0.209*[#   3]
    |psi|^2 = 0.951
==== e(   8) =    16.36651 eV ==== 
     psi = 0.478*[#   2]+0.478*[#   3]
    |psi|^2 = 0.957
==== e(   9) =    16.77851 eV ==== 
     psi = 0.434*[#   4]+0.209*[#   2]+0.209*[#   3]+0.056*[#   1]
    |psi|^2 = 0.909
==== e(  10) =    20.24537 eV ==== 
     psi = 0.018*[#   2]+0.018*[#   3]+0.008*[#   4]
    |psi|^2 = 0.044
==== e(  11) =    21.45646 eV ==== 
     psi = 0.018*[#   2]+0.018*[#   3]+0.008*[#   4]
    |psi|^2 = 0.044
==== e(  12) =    24.79867 eV ==== 
     psi = 0.012*[#   2]+0.012*[#   3]+0.003*[#   1]
    |psi|^2 = 0.028
==== e(  13) =    25.92687 eV ==== 
     psi = 0.004*[#   3]+0.004*[#   2]+0.001*[#   1]
    |psi|^2 = 0.010

 k =   0.0000000000  0.5000000000  0.0000000000
==== e(   1) =    -5.89597 eV ==== 
     psi = 1.000*[#   6]
    |psi|^2 = 1.000
==== e(   2) =    -5.77189 eV ==== 
     psi = 0.748*[#   8]+0.249*[#   5]+0.001*[#   1]
    |psi|^2 = 1.000
==== e(   3) =    -5.66527 eV ==== 
     psi = 0.998*[#   9]+0.002*[#   3]
    |psi|^2 = 1.000
==== e(   4) =    -5.66527 eV ==== 
     psi = 0.998*[#   7]+0.002*[#   2]
    |psi|^2 = 1.000
==== e(   5) =    -5.61396 eV ==== 
     psi = 0.750*[#   5]+0.250*[#   8]
    |psi|^2 = 1.000
==== e(   6) =     1.09759 eV ==== 
     psi = 0.638*[#   1]+0.359*[#   4]+0.002*[#   8]
    |psi|^2 = 0.999
==== e(   7) =    13.51168 eV ==== 
     psi = 0.625*[#   4]+0.356*[#   1]
    |psi|^2 = 0.981
==== e(   8) =    15.23928 eV ==== 
     psi = 0.970*[#   3]+0.002*[#   9]
    |psi|^2 = 0.972
==== e(   9) =    15.23928 eV ==== 
     psi = 0.970*[#   2]+0.002*[#   7]
    |psi|^2 = 0.972
==== e(  10) =    18.93277 eV ==== 

    |psi|^2 = 0.000
==== e(  11) =    19.01126 eV ==== 
     psi = 0.004*[#   4]+0.002*[#   1]
    |psi|^2 = 0.006
==== e(  12) =    28.32031 eV ==== 
     psi = 0.015*[#   3]
    |psi|^2 = 0.015
==== e(  13) =    28.32031 eV ==== 
     psi = 0.015*[#   2]
    |psi|^2 = 0.015

 k =  -0.1250000000  0.6250000000 -0.1250000000
==== e(   1) =    -5.90325 eV ==== 
     psi = 0.974*[#   6]+0.012*[#   8]+0.004*[#   5]+0.004*[#   7]+0.004*[#   9]
          
    |psi|^2 = 1.000
==== e(   2) =    -5.80126 eV ==== 
     psi = 0.721*[#   8]+0.240*[#   5]+0.013*[#   6]+0.011*[#   7]+0.011*[#   9]
          +0.001*[#   1]+0.001*[#   2]+0.001*[#   3]
    |psi|^2 = 1.000
==== e(   3) =    -5.65310 eV ==== 
     psi = 0.355*[#   5]+0.262*[#   7]+0.262*[#   9]+0.118*[#   8]
    |psi|^2 = 1.000
==== e(   4) =    -5.62164 eV ==== 
     psi = 0.483*[#   7]+0.483*[#   9]+0.014*[#   8]+0.011*[#   6]+0.005*[#   5]
          +0.002*[#   4]+0.001*[#   1]
    |psi|^2 = 1.000
==== e(   5) =    -5.55912 eV ==== 
     psi = 0.395*[#   5]+0.237*[#   7]+0.237*[#   9]+0.132*[#   8]
    |psi|^2 = 1.000
==== e(   6) =     2.14626 eV ==== 
     psi = 0.654*[#   1]+0.323*[#   4]+0.008*[#   2]+0.008*[#   3]+0.002*[#   8]
          
    |psi|^2 = 0.999
==== e(   7) =    11.09637 eV ==== 
     psi = 0.446*[#   4]+0.301*[#   1]+0.117*[#   2]+0.117*[#   3]
    |psi|^2 = 0.982
==== e(   8) =    13.84332 eV ==== 
     psi = 0.341*[#   2]+0.341*[#   3]+0.202*[#   4]+0.034*[#   1]+0.001*[#   6]
          +0.001*[#   7]+0.001*[#   9]
    |psi|^2 = 0.922
==== e(   9) =    14.63671 eV ==== 
     psi = 0.488*[#   2]+0.488*[#   3]
    |psi|^2 = 0.978
==== e(  10) =    18.24309 eV ==== 
     psi = 0.010*[#   4]+0.004*[#   1]+0.001*[#   2]+0.001*[#   3]
    |psi|^2 = 0.016
==== e(  11) =    20.09590 eV ==== 
     psi = 0.021*[#   2]+0.021*[#   3]+0.011*[#   4]+0.002*[#   1]
    |psi|^2 = 0.054
==== e(  12) =    27.26735 eV ==== 
     psi = 0.006*[#   2]+0.006*[#   3]
    |psi|^2 = 0.013
==== e(  13) =    27.45077 eV ==== 
     psi = 0.005*[#   2]+0.005*[#   3]
    |psi|^2 = 0.010

 k =  -0.2500000000  0.7500000000 -0.2500000000
==== e(   1) =    -5.88105 eV ==== 
     psi = 0.766*[#   6]+0.167*[#   8]+0.056*[#   5]+0.004*[#   7]+0.004*[#   9]
          +0.002*[#   1]
    |psi|^2 = 1.000
==== e(   2) =    -5.77789 eV ==== 
     psi = 0.527*[#   8]+0.176*[#   5]+0.173*[#   6]+0.057*[#   7]+0.057*[#   9]
          +0.004*[#   2]+0.004*[#   3]
    |psi|^2 = 1.000
==== e(   3) =    -5.67152 eV ==== 
     psi = 0.486*[#   5]+0.175*[#   7]+0.175*[#   9]+0.162*[#   8]
    |psi|^2 = 1.000
==== e(   4) =    -5.62372 eV ==== 
     psi = 0.435*[#   7]+0.435*[#   9]+0.055*[#   6]+0.051*[#   8]+0.017*[#   5]
          +0.006*[#   4]+0.001*[#   1]
    |psi|^2 = 1.000
==== e(   5) =    -5.53248 eV ==== 
     psi = 0.325*[#   7]+0.325*[#   9]+0.263*[#   5]+0.088*[#   8]
    |psi|^2 = 1.000
==== e(   6) =     3.46534 eV ==== 
     psi = 0.811*[#   1]+0.175*[#   4]+0.002*[#   2]+0.002*[#   3]+0.002*[#   7]
          +0.002*[#   9]+0.001*[#   8]
    |psi|^2 = 0.998
==== e(   7) =     8.81127 eV ==== 
     psi = 0.390*[#   4]+0.241*[#   2]+0.241*[#   3]+0.118*[#   1]+0.003*[#   6]
          +0.002*[#   8]
    |psi|^2 = 0.994
==== e(   8) =    12.29482 eV ==== 
     psi = 0.409*[#   4]+0.240*[#   2]+0.240*[#   3]+0.061*[#   1]+0.002*[#   6]
          +0.002*[#   7]+0.002*[#   9]+0.002*[#   8]
    |psi|^2 = 0.957
==== e(   9) =    14.68967 eV ==== 
     psi = 0.487*[#   2]+0.487*[#   3]
    |psi|^2 = 0.975
==== e(  10) =    18.15288 eV ==== 
     psi = 0.008*[#   4]+0.004*[#   1]+0.001*[#   2]+0.001*[#   3]
    |psi|^2 = 0.014
==== e(  11) =    23.00127 eV ==== 
     psi = 0.008*[#   4]+0.007*[#   2]+0.007*[#   3]+0.001*[#   1]
    |psi|^2 = 0.024
==== e(  12) =    25.95567 eV ==== 
     psi = 0.002*[#   2]+0.002*[#   3]
    |psi|^2 = 0.004
==== e(  13) =    26.28527 eV ==== 
     psi = 0.006*[#   2]+0.006*[#   3]
    |psi|^2 = 0.012

 k =  -0.3750000000  0.8750000000 -0.3750000000
==== e(   1) =    -5.85197 eV ==== 
     psi = 0.577*[#   6]+0.314*[#   8]+0.105*[#   5]+0.003*[#   1]+0.001*[#   7]
          +0.001*[#   9]
    |psi|^2 = 1.000
==== e(   2) =    -5.72794 eV ==== 
     psi = 0.323*[#   7]+0.323*[#   9]+0.166*[#   8]+0.121*[#   6]+0.055*[#   5]
          +0.007*[#   4]+0.003*[#   2]+0.003*[#   3]
    |psi|^2 = 1.000
==== e(   3) =    -5.68545 eV ==== 
     psi = 0.577*[#   5]+0.192*[#   8]+0.115*[#   7]+0.115*[#   9]
    |psi|^2 = 1.000
==== e(   4) =    -5.64486 eV ==== 
     psi = 0.295*[#   6]+0.266*[#   8]+0.171*[#   7]+0.171*[#   9]+0.089*[#   5]
          +0.004*[#   4]+0.003*[#   2]+0.003*[#   3]
    |psi|^2 = 1.000
==== e(   5) =    -5.57488 eV ==== 
     psi = 0.385*[#   7]+0.385*[#   9]+0.172*[#   5]+0.057*[#   8]
    |psi|^2 = 1.000
==== e(   6) =     3.74060 eV ==== 
     psi = 0.890*[#   1]+0.046*[#   2]+0.046*[#   3]+0.009*[#   4]+0.005*[#   6]
          
    |psi|^2 = 0.998
==== e(   7) =     8.49288 eV ==== 
     psi = 0.346*[#   4]+0.303*[#   2]+0.303*[#   3]+0.035*[#   1]+0.003*[#   8]
          +0.002*[#   6]+0.001*[#   7]+0.001*[#   9]+0.001*[#   5]
    |psi|^2 = 0.997
==== e(   8) =    11.37307 eV ==== 
     psi = 0.622*[#   4]+0.141*[#   2]+0.141*[#   3]+0.065*[#   1]+0.003*[#   7]
          +0.003*[#   9]+0.001*[#   8]
    |psi|^2 = 0.980
==== e(   9) =    15.40981 eV ==== 
     psi = 0.482*[#   2]+0.482*[#   3]+0.001*[#   5]
    |psi|^2 = 0.965
==== e(  10) =    18.59376 eV ==== 
     psi = 0.003*[#   1]+0.002*[#   4]+0.002*[#   2]+0.002*[#   3]
    |psi|^2 = 0.009
==== e(  11) =    25.07216 eV ==== 
     psi = 0.005*[#   4]
    |psi|^2 = 0.005
==== e(  12) =    25.54338 eV ==== 
     psi = 0.009*[#   2]+0.009*[#   3]
    |psi|^2 = 0.018
==== e(  13) =    26.56590 eV ==== 
     psi = 0.001*[#   4]+0.001*[#   2]+0.001*[#   3]
    |psi|^2 = 0.005

 k =  -0.5000000000  1.0000000000 -0.5000000000
==== e(   1) =    -5.81430 eV ==== 
     psi = 0.537*[#   6]+0.345*[#   8]+0.115*[#   5]+0.002*[#   1]
    |psi|^2 = 1.000
==== e(   2) =    -5.76449 eV ==== 
     psi = 0.495*[#   7]+0.495*[#   9]+0.010*[#   4]
    |psi|^2 = 1.000
==== e(   3) =    -5.69295 eV ==== 
     psi = 0.749*[#   5]+0.250*[#   8]
    |psi|^2 = 1.000
==== e(   4) =    -5.65371 eV ==== 
     psi = 0.500*[#   7]+0.500*[#   9]
    |psi|^2 = 1.000
==== e(   5) =    -5.60756 eV ==== 
     psi = 0.456*[#   6]+0.402*[#   8]+0.134*[#   5]+0.003*[#   2]+0.003*[#   3]
          +0.001*[#   1]
    |psi|^2 = 1.000
==== e(   6) =     2.54232 eV ==== 
     psi = 0.715*[#   1]+0.138*[#   2]+0.138*[#   3]+0.006*[#   6]
    |psi|^2 = 0.999
==== e(   7) =    10.17108 eV ==== 
     psi = 0.352*[#   2]+0.352*[#   3]+0.273*[#   1]+0.002*[#   8]
    |psi|^2 = 0.981
==== e(   8) =    11.70924 eV ==== 
     psi = 0.964*[#   4]+0.005*[#   7]+0.005*[#   9]
    |psi|^2 = 0.975
==== e(   9) =    16.65339 eV ==== 
     psi = 0.476*[#   2]+0.476*[#   3]
    |psi|^2 = 0.954
==== e(  10) =    19.55928 eV ==== 
     psi = 0.004*[#   1]+0.003*[#   2]+0.003*[#   3]
    |psi|^2 = 0.010
==== e(  11) =    24.28016 eV ==== 
     psi = 0.020*[#   4]
    |psi|^2 = 0.020
==== e(  12) =    24.93713 eV ==== 
     psi = 0.021*[#   2]+0.021*[#   3]
    |psi|^2 = 0.043
==== e(  13) =    25.38672 eV ==== 
     psi = 0.003*[#   1]+0.002*[#   2]+0.002*[#   3]
    |psi|^2 = 0.007

 k =  -0.6250000000  1.1250000000 -0.6250000000
==== e(   1) =    -5.81318 eV ==== 
     psi = 0.451*[#   7]+0.451*[#   9]+0.090*[#   6]+0.005*[#   4]+0.002*[#   1]
          
    |psi|^2 = 1.000
==== e(   2) =    -5.78360 eV ==== 
     psi = 0.522*[#   6]+0.317*[#   8]+0.106*[#   5]+0.027*[#   7]+0.027*[#   9]
          
    |psi|^2 = 1.000
==== e(   3) =    -5.75159 eV ==== 
     psi = 0.347*[#   5]+0.269*[#   7]+0.269*[#   9]+0.116*[#   8]
    |psi|^2 = 1.000
==== e(   4) =    -5.65999 eV ==== 
     psi = 0.403*[#   5]+0.231*[#   7]+0.231*[#   9]+0.134*[#   8]
    |psi|^2 = 1.000
==== e(   5) =    -5.59581 eV ==== 
     psi = 0.432*[#   8]+0.384*[#   6]+0.144*[#   5]+0.018*[#   7]+0.018*[#   9]
          +0.001*[#   1]
    |psi|^2 = 1.000
==== e(   6) =     1.37724 eV ==== 
     psi = 0.669*[#   1]+0.156*[#   2]+0.156*[#   3]+0.012*[#   4]+0.003*[#   6]
          
    |psi|^2 = 0.999
==== e(   7) =    11.00440 eV ==== 
     psi = 0.280*[#   1]+0.235*[#   2]+0.235*[#   3]+0.209*[#   4]
    |psi|^2 = 0.962
==== e(   8) =    14.58553 eV ==== 
     psi = 0.702*[#   4]+0.096*[#   2]+0.096*[#   3]+0.036*[#   1]+0.002*[#   7]
          +0.002*[#   9]
    |psi|^2 = 0.935
==== e(   9) =    17.85514 eV ==== 
     psi = 0.487*[#   2]+0.487*[#   3]
    |psi|^2 = 0.975
==== e(  10) =    21.00662 eV ==== 
     psi = 0.008*[#   4]+0.003*[#   2]+0.003*[#   3]+0.003*[#   1]
    |psi|^2 = 0.017
==== e(  11) =    22.03379 eV ==== 
     psi = 0.041*[#   4]+0.004*[#   1]
    |psi|^2 = 0.047
==== e(  12) =    23.27389 eV ==== 
     psi = 0.004*[#   2]+0.004*[#   3]
    |psi|^2 = 0.008
==== e(  13) =    25.31642 eV ==== 
     psi = 0.005*[#   4]+0.005*[#   2]+0.005*[#   3]+0.003*[#   1]
    |psi|^2 = 0.018

 k =   0.3750000000  0.3750000000  0.3750000000
==== e(   1) =    -5.83575 eV ==== 
     psi = 0.330*[#   6]+0.330*[#   7]+0.330*[#   9]+0.010*[#   1]
    |psi|^2 = 1.000
==== e(   2) =    -5.79423 eV ==== 
     psi = 0.524*[#   5]+0.317*[#   9]+0.079*[#   6]+0.079*[#   7]
    |psi|^2 = 1.000
==== e(   3) =    -5.79423 eV ==== 
     psi = 0.524*[#   8]+0.238*[#   6]+0.238*[#   7]
    |psi|^2 = 1.000
==== e(   4) =    -5.57224 eV ==== 
     psi = 0.476*[#   5]+0.349*[#   9]+0.087*[#   6]+0.087*[#   7]
    |psi|^2 = 1.000
==== e(   5) =    -5.57224 eV ==== 
     psi = 0.476*[#   8]+0.262*[#   6]+0.262*[#   7]
    |psi|^2 = 1.000
==== e(   6) =     2.09008 eV ==== 
     psi = 0.756*[#   1]+0.078*[#   2]+0.078*[#   3]+0.078*[#   4]+0.002*[#   6]
          +0.002*[#   7]+0.002*[#   9]
    |psi|^2 = 0.999
==== e(   7) =     8.72913 eV ==== 
     psi = 0.250*[#   2]+0.250*[#   3]+0.250*[#   4]+0.225*[#   1]
    |psi|^2 = 0.977
==== e(   8) =    17.07146 eV ==== 
     psi = 0.650*[#   2]+0.184*[#   3]+0.142*[#   4]
    |psi|^2 = 0.977
==== e(   9) =    17.07146 eV ==== 
     psi = 0.509*[#   4]+0.467*[#   3]+0.001*[#   2]
    |psi|^2 = 0.977
==== e(  10) =    20.35345 eV ==== 
     psi = 0.005*[#   1]+0.003*[#   2]+0.003*[#   3]+0.003*[#   4]
    |psi|^2 = 0.014
==== e(  11) =    21.61097 eV ==== 
     psi = 0.004*[#   1]+0.001*[#   2]+0.001*[#   3]+0.001*[#   4]
    |psi|^2 = 0.007
==== e(  12) =    22.79097 eV ==== 
     psi = 0.003*[#   2]
    |psi|^2 = 0.005
==== e(  13) =    22.79097 eV ==== 
     psi = 0.003*[#   3]+0.003*[#   4]
    |psi|^2 = 0.005

 k =   0.2500000000  0.5000000000  0.2500000000
==== e(   1) =    -5.84374 eV ==== 
     psi = 0.812*[#   6]+0.061*[#   8]+0.050*[#   7]+0.050*[#   9]+0.020*[#   5]
          +0.003*[#   1]
    |psi|^2 = 1.000
==== e(   2) =    -5.77744 eV ==== 
     psi = 0.407*[#   8]+0.227*[#   7]+0.227*[#   9]+0.136*[#   5]
    |psi|^2 = 1.000
==== e(   3) =    -5.74865 eV ==== 
     psi = 0.361*[#   5]+0.259*[#   7]+0.259*[#   9]+0.120*[#   8]
    |psi|^2 = 1.000
==== e(   4) =    -5.64006 eV ==== 
     psi = 0.281*[#   8]+0.219*[#   7]+0.219*[#   9]+0.184*[#   6]+0.094*[#   5]
          +0.001*[#   1]
    |psi|^2 = 1.000
==== e(   5) =    -5.56337 eV ==== 
     psi = 0.389*[#   5]+0.240*[#   7]+0.240*[#   9]+0.130*[#   8]
    |psi|^2 = 1.000
==== e(   6) =     1.84305 eV ==== 
     psi = 0.689*[#   1]+0.226*[#   4]+0.039*[#   2]+0.039*[#   3]+0.002*[#   7]
          +0.002*[#   9]
    |psi|^2 = 0.999
==== e(   7) =     9.93279 eV ==== 
     psi = 0.253*[#   2]+0.253*[#   3]+0.250*[#   1]+0.214*[#   4]+0.002*[#   6]
          
    |psi|^2 = 0.974
==== e(   8) =    15.77200 eV ==== 
     psi = 0.529*[#   4]+0.175*[#   2]+0.175*[#   3]+0.051*[#   1]
    |psi|^2 = 0.931
==== e(   9) =    15.91998 eV ==== 
     psi = 0.481*[#   2]+0.481*[#   3]
    |psi|^2 = 0.964
==== e(  10) =    19.53843 eV ==== 
     psi = 0.001*[#   2]+0.001*[#   3]
    |psi|^2 = 0.003
==== e(  11) =    22.93930 eV ==== 
     psi = 0.028*[#   2]+0.028*[#   3]+0.018*[#   4]
    |psi|^2 = 0.075
==== e(  12) =    24.64939 eV ==== 
     psi = 0.011*[#   2]+0.011*[#   3]
    |psi|^2 = 0.021
==== e(  13) =    24.65243 eV ==== 
     psi = 0.004*[#   4]+0.002*[#   1]
    |psi|^2 = 0.007

 k =   0.1250000000  0.6250000000  0.1250000000
==== e(   1) =    -5.90325 eV ==== 
     psi = 0.974*[#   6]+0.012*[#   8]+0.004*[#   5]+0.004*[#   7]+0.004*[#   9]
          
    |psi|^2 = 1.000
==== e(   2) =    -5.80126 eV ==== 
     psi = 0.721*[#   8]+0.240*[#   5]+0.013*[#   6]+0.011*[#   7]+0.011*[#   9]
          +0.001*[#   1]+0.001*[#   2]+0.001*[#   3]
    |psi|^2 = 1.000
==== e(   3) =    -5.65310 eV ==== 
     psi = 0.355*[#   5]+0.262*[#   7]+0.262*[#   9]+0.118*[#   8]
    |psi|^2 = 1.000
==== e(   4) =    -5.62164 eV ==== 
     psi = 0.483*[#   7]+0.483*[#   9]+0.014*[#   8]+0.011*[#   6]+0.005*[#   5]
          +0.002*[#   4]+0.001*[#   1]
    |psi|^2 = 1.000
==== e(   5) =    -5.55912 eV ==== 
     psi = 0.395*[#   5]+0.237*[#   7]+0.237*[#   9]+0.132*[#   8]
    |psi|^2 = 1.000
==== e(   6) =     2.14626 eV ==== 
     psi = 0.654*[#   1]+0.323*[#   4]+0.008*[#   2]+0.008*[#   3]+0.002*[#   8]
          
    |psi|^2 = 0.999
==== e(   7) =    11.09637 eV ==== 
     psi = 0.446*[#   4]+0.301*[#   1]+0.117*[#   2]+0.117*[#   3]
    |psi|^2 = 0.982
==== e(   8) =    13.84332 eV ==== 
     psi = 0.341*[#   2]+0.341*[#   3]+0.202*[#   4]+0.034*[#   1]+0.001*[#   6]
          +0.001*[#   7]+0.001*[#   9]
    |psi|^2 = 0.922
==== e(   9) =    14.63671 eV ==== 
     psi = 0.488*[#   2]+0.488*[#   3]
    |psi|^2 = 0.978
==== e(  10) =    18.24309 eV ==== 
     psi = 0.010*[#   4]+0.004*[#   1]+0.001*[#   2]+0.001*[#   3]
    |psi|^2 = 0.016
==== e(  11) =    20.09590 eV ==== 
     psi = 0.021*[#   2]+0.021*[#   3]+0.011*[#   4]+0.002*[#   1]
    |psi|^2 = 0.054
==== e(  12) =    27.26735 eV ==== 
     psi = 0.006*[#   2]+0.006*[#   3]
    |psi|^2 = 0.013
==== e(  13) =    27.45077 eV ==== 
     psi = 0.005*[#   2]+0.005*[#   3]
    |psi|^2 = 0.010

 k =   0.0000000000  0.7500000000  0.0000000000
==== e(   1) =    -5.95335 eV ==== 
     psi = 1.000*[#   6]
    |psi|^2 = 1.000
==== e(   2) =    -5.85297 eV ==== 
     psi = 0.746*[#   8]+0.249*[#   5]+0.004*[#   1]+0.001*[#   4]
    |psi|^2 = 1.000
==== e(   3) =    -5.57027 eV ==== 
     psi = 0.750*[#   5]+0.250*[#   8]
    |psi|^2 = 1.000
==== e(   4) =    -5.55401 eV ==== 
     psi = 0.999*[#   9]+0.001*[#   3]
    |psi|^2 = 1.000
==== e(   5) =    -5.55401 eV ==== 
     psi = 0.999*[#   7]+0.001*[#   2]
    |psi|^2 = 1.000
==== e(   6) =     2.97971 eV ==== 
     psi = 0.695*[#   1]+0.299*[#   4]+0.004*[#   8]+0.001*[#   5]
    |psi|^2 = 0.999
==== e(   7) =    10.12113 eV ==== 
     psi = 0.684*[#   4]+0.291*[#   1]
    |psi|^2 = 0.976
==== e(   8) =    13.82908 eV ==== 
     psi = 0.985*[#   3]+0.001*[#   9]
    |psi|^2 = 0.986
==== e(   9) =    13.82908 eV ==== 
     psi = 0.985*[#   2]+0.001*[#   7]
    |psi|^2 = 0.986
==== e(  10) =    17.17328 eV ==== 
     psi = 0.011*[#   4]+0.009*[#   1]
    |psi|^2 = 0.020
==== e(  11) =    18.16729 eV ==== 

    |psi|^2 = 0.000
==== e(  12) =    30.41826 eV ==== 

    |psi|^2 = 0.000
==== e(  13) =    30.48351 eV ==== 
     psi = 0.005*[#   2]+0.002*[#   3]
    |psi|^2 = 0.008

 k =  -0.1250000000  0.8750000000 -0.1250000000
==== e(   1) =    -5.94287 eV ==== 
     psi = 0.966*[#   6]+0.023*[#   8]+0.008*[#   5]
    |psi|^2 = 1.000
==== e(   2) =    -5.85779 eV ==== 
     psi = 0.721*[#   8]+0.240*[#   5]+0.030*[#   6]+0.003*[#   1]+0.002*[#   2]
          +0.002*[#   3]
    |psi|^2 = 1.000
==== e(   3) =    -5.58055 eV ==== 
     psi = 0.655*[#   5]+0.218*[#   8]+0.063*[#   7]+0.063*[#   9]
    |psi|^2 = 1.000
==== e(   4) =    -5.54589 eV ==== 
     psi = 0.498*[#   7]+0.498*[#   9]+0.003*[#   4]
    |psi|^2 = 1.000
==== e(   5) =    -5.52109 eV ==== 
     psi = 0.437*[#   7]+0.437*[#   9]+0.094*[#   5]+0.031*[#   8]
    |psi|^2 = 1.000
==== e(   6) =     4.07478 eV ==== 
     psi = 0.860*[#   1]+0.130*[#   4]+0.003*[#   8]+0.001*[#   2]+0.001*[#   3]
          +0.001*[#   5]
    |psi|^2 = 0.997
==== e(   7) =     8.79601 eV ==== 
     psi = 0.844*[#   4]+0.130*[#   1]+0.008*[#   2]+0.008*[#   3]
    |psi|^2 = 0.992
==== e(   8) =    12.05877 eV ==== 
     psi = 0.466*[#   2]+0.466*[#   3]+0.016*[#   4]+0.002*[#   6]+0.002*[#   8]
          
    |psi|^2 = 0.954
==== e(   9) =    13.69009 eV ==== 
     psi = 0.493*[#   2]+0.493*[#   3]
    |psi|^2 = 0.986
==== e(  10) =    17.34528 eV ==== 
     psi = 0.005*[#   1]+0.004*[#   2]+0.004*[#   3]+0.004*[#   4]
    |psi|^2 = 0.017
==== e(  11) =    19.48205 eV ==== 
     psi = 0.014*[#   2]+0.014*[#   3]+0.002*[#   4]
    |psi|^2 = 0.030
==== e(  12) =    29.16570 eV ==== 
     psi = 0.001*[#   2]+0.001*[#   3]
    |psi|^2 = 0.003
==== e(  13) =    29.50167 eV ==== 
     psi = 0.002*[#   2]+0.002*[#   3]
    |psi|^2 = 0.004

 k =  -0.2500000000  1.0000000000 -0.2500000000
==== e(   1) =    -5.89906 eV ==== 
     psi = 0.713*[#   6]+0.213*[#   8]+0.071*[#   5]+0.002*[#   1]
    |psi|^2 = 1.000
==== e(   2) =    -5.78524 eV ==== 
     psi = 0.531*[#   8]+0.280*[#   6]+0.177*[#   5]+0.006*[#   2]+0.006*[#   3]
          
    |psi|^2 = 1.000
==== e(   3) =    -5.61073 eV ==== 
     psi = 0.749*[#   5]+0.250*[#   8]
    |psi|^2 = 1.000
==== e(   4) =    -5.60702 eV ==== 
     psi = 0.496*[#   7]+0.496*[#   9]+0.008*[#   4]
    |psi|^2 = 1.000
==== e(   5) =    -5.54810 eV ==== 
     psi = 0.500*[#   7]+0.500*[#   9]
    |psi|^2 = 1.000
==== e(   6) =     4.45196 eV ==== 
     psi = 0.984*[#   1]+0.005*[#   2]+0.005*[#   3]+0.001*[#   6]
    |psi|^2 = 0.996
==== e(   7) =     8.97637 eV ==== 
     psi = 0.990*[#   4]+0.004*[#   7]+0.004*[#   9]
    |psi|^2 = 0.998
==== e(   8) =    10.03392 eV ==== 
     psi = 0.482*[#   2]+0.482*[#   3]+0.008*[#   1]+0.005*[#   6]+0.005*[#   8]
          +0.002*[#   5]
    |psi|^2 = 0.985
==== e(   9) =    14.25482 eV ==== 
     psi = 0.489*[#   2]+0.489*[#   3]+0.001*[#   5]
    |psi|^2 = 0.980
==== e(  10) =    17.75940 eV ==== 
     psi = 0.003*[#   1]+0.001*[#   2]+0.001*[#   3]
    |psi|^2 = 0.006
==== e(  11) =    22.72004 eV ==== 
     psi = 0.004*[#   2]+0.004*[#   3]
    |psi|^2 = 0.009
==== e(  12) =    28.09581 eV ==== 

    |psi|^2 = 0.000
==== e(  13) =    28.38692 eV ==== 
     psi = 0.001*[#   4]
    |psi|^2 = 0.001

 k =  -0.3750000000  1.1250000000 -0.3750000000
==== e(   1) =    -5.85197 eV ==== 
     psi = 0.577*[#   6]+0.314*[#   8]+0.105*[#   5]+0.003*[#   1]+0.001*[#   7]
          +0.001*[#   9]
    |psi|^2 = 1.000
==== e(   2) =    -5.72794 eV ==== 
     psi = 0.323*[#   7]+0.323*[#   9]+0.166*[#   8]+0.121*[#   6]+0.055*[#   5]
          +0.007*[#   4]+0.003*[#   2]+0.003*[#   3]
    |psi|^2 = 1.000
==== e(   3) =    -5.68545 eV ==== 
     psi = 0.577*[#   5]+0.192*[#   8]+0.115*[#   7]+0.115*[#   9]
    |psi|^2 = 1.000
==== e(   4) =    -5.64486 eV ==== 
     psi = 0.295*[#   6]+0.266*[#   8]+0.171*[#   7]+0.171*[#   9]+0.089*[#   5]
          +0.004*[#   4]+0.003*[#   2]+0.003*[#   3]
    |psi|^2 = 1.000
==== e(   5) =    -5.57488 eV ==== 
     psi = 0.385*[#   7]+0.385*[#   9]+0.172*[#   5]+0.057*[#   8]
    |psi|^2 = 1.000
==== e(   6) =     3.74060 eV ==== 
     psi = 0.890*[#   1]+0.046*[#   2]+0.046*[#   3]+0.009*[#   4]+0.005*[#   6]
          
    |psi|^2 = 0.998
==== e(   7) =     8.49288 eV ==== 
     psi = 0.346*[#   4]+0.303*[#   2]+0.303*[#   3]+0.035*[#   1]+0.003*[#   8]
          +0.002*[#   6]+0.001*[#   7]+0.001*[#   9]+0.001*[#   5]
    |psi|^2 = 0.997
==== e(   8) =    11.37307 eV ==== 
     psi = 0.622*[#   4]+0.141*[#   2]+0.141*[#   3]+0.065*[#   1]+0.003*[#   7]
          +0.003*[#   9]+0.001*[#   8]
    |psi|^2 = 0.980
==== e(   9) =    15.40981 eV ==== 
     psi = 0.482*[#   2]+0.482*[#   3]+0.001*[#   5]
    |psi|^2 = 0.965
==== e(  10) =    18.59376 eV ==== 
     psi = 0.003*[#   1]+0.002*[#   4]+0.002*[#   2]+0.002*[#   3]
    |psi|^2 = 0.009
==== e(  11) =    25.07216 eV ==== 
     psi = 0.005*[#   4]
    |psi|^2 = 0.005
==== e(  12) =    25.54338 eV ==== 
     psi = 0.009*[#   2]+0.009*[#   3]
    |psi|^2 = 0.018
==== e(  13) =    26.56590 eV ==== 
     psi = 0.001*[#   4]+0.001*[#   2]+0.001*[#   3]
    |psi|^2 = 0.005

 k =  -0.5000000000  1.2500000000 -0.5000000000
==== e(   1) =    -5.81985 eV ==== 
     psi = 0.547*[#   6]+0.143*[#   7]+0.143*[#   9]+0.119*[#   8]+0.040*[#   5]
          +0.006*[#   1]+0.002*[#   4]
    |psi|^2 = 1.000
==== e(   2) =    -5.79803 eV ==== 
     psi = 0.288*[#   8]+0.282*[#   7]+0.282*[#   9]+0.096*[#   5]+0.047*[#   6]
          +0.003*[#   4]+0.001*[#   1]
    |psi|^2 = 1.000
==== e(   3) =    -5.76676 eV ==== 
     psi = 0.451*[#   5]+0.199*[#   7]+0.199*[#   9]+0.150*[#   8]
    |psi|^2 = 1.000
==== e(   4) =    -5.57878 eV ==== 
     psi = 0.301*[#   7]+0.301*[#   9]+0.299*[#   5]+0.100*[#   8]
    |psi|^2 = 1.000
==== e(   5) =    -5.56895 eV ==== 
     psi = 0.401*[#   6]+0.342*[#   8]+0.114*[#   5]+0.070*[#   7]+0.070*[#   9]
          +0.001*[#   2]+0.001*[#   3]
    |psi|^2 = 1.000
==== e(   6) =     2.79818 eV ==== 
     psi = 0.814*[#   1]+0.086*[#   2]+0.086*[#   3]+0.005*[#   6]+0.002*[#   4]
          +0.002*[#   7]+0.002*[#   9]
    |psi|^2 = 0.998
==== e(   7) =     8.17268 eV ==== 
     psi = 0.324*[#   4]+0.266*[#   2]+0.266*[#   3]+0.130*[#   1]+0.001*[#   7]
          +0.001*[#   9]
    |psi|^2 = 0.991
==== e(   8) =    14.43505 eV ==== 
     psi = 0.628*[#   4]+0.139*[#   2]+0.139*[#   3]+0.043*[#   1]+0.002*[#   7]
          +0.002*[#   9]
    |psi|^2 = 0.953
==== e(   9) =    16.75119 eV ==== 
     psi = 0.483*[#   2]+0.483*[#   3]
    |psi|^2 = 0.967
==== e(  10) =    19.91108 eV ==== 
     psi = 0.006*[#   4]+0.002*[#   1]+0.002*[#   2]+0.002*[#   3]
    |psi|^2 = 0.012
==== e(  11) =    22.22153 eV ==== 
     psi = 0.019*[#   4]+0.001*[#   1]
    |psi|^2 = 0.021
==== e(  12) =    23.23537 eV ==== 
     psi = 0.008*[#   2]+0.008*[#   3]
    |psi|^2 = 0.015
==== e(  13) =    25.61143 eV ==== 
     psi = 0.005*[#   4]
    |psi|^2 = 0.006

 k =   0.5000000000  0.5000000000  0.5000000000
==== e(   1) =    -5.84286 eV ==== 
     psi = 0.329*[#   6]+0.329*[#   7]+0.329*[#   9]+0.012*[#   1]
    |psi|^2 = 1.000
==== e(   2) =    -5.80368 eV ==== 
     psi = 0.570*[#   5]+0.286*[#   9]+0.072*[#   6]+0.072*[#   7]
    |psi|^2 = 1.000
==== e(   3) =    -5.80368 eV ==== 
     psi = 0.570*[#   8]+0.215*[#   6]+0.215*[#   7]
    |psi|^2 = 1.000
==== e(   4) =    -5.54073 eV ==== 
     psi = 0.430*[#   5]+0.380*[#   9]+0.095*[#   6]+0.095*[#   7]
    |psi|^2 = 1.000
==== e(   5) =    -5.54073 eV ==== 
     psi = 0.430*[#   8]+0.285*[#   6]+0.285*[#   7]
    |psi|^2 = 1.000
==== e(   6) =     3.12503 eV ==== 
     psi = 0.983*[#   1]+0.004*[#   6]+0.004*[#   7]+0.004*[#   9]
    |psi|^2 = 0.995
==== e(   7) =     7.05115 eV ==== 
     psi = 0.333*[#   2]+0.333*[#   3]+0.333*[#   4]
    |psi|^2 = 0.998
==== e(   8) =    16.85812 eV ==== 
     psi = 0.552*[#   2]+0.368*[#   3]+0.064*[#   4]
    |psi|^2 = 0.984
==== e(   9) =    16.85812 eV ==== 
     psi = 0.592*[#   4]+0.288*[#   3]+0.104*[#   2]
    |psi|^2 = 0.984
==== e(  10) =    20.72363 eV ==== 
     psi = 0.005*[#   1]
    |psi|^2 = 0.005
==== e(  11) =    20.77321 eV ==== 

    |psi|^2 = 0.000
==== e(  12) =    22.47796 eV ==== 

    |psi|^2 = 0.000
==== e(  13) =    22.47796 eV ==== 

    |psi|^2 = 0.000

 k =   0.3750000000  0.6250000000  0.3750000000
==== e(   1) =    -5.83670 eV ==== 
     psi = 0.672*[#   6]+0.154*[#   8]+0.058*[#   7]+0.058*[#   9]+0.051*[#   5]
          +0.005*[#   1]+0.001*[#   4]
    |psi|^2 = 1.000
==== e(   2) =    -5.79292 eV ==== 
     psi = 0.298*[#   8]+0.298*[#   7]+0.298*[#   9]+0.099*[#   5]+0.003*[#   1]
          +0.002*[#   4]+0.001*[#   2]+0.001*[#   3]
    |psi|^2 = 1.000
==== e(   3) =    -5.76526 eV ==== 
     psi = 0.438*[#   5]+0.208*[#   7]+0.208*[#   9]+0.146*[#   8]
    |psi|^2 = 1.000
==== e(   4) =    -5.58627 eV ==== 
     psi = 0.322*[#   6]+0.296*[#   8]+0.140*[#   7]+0.140*[#   9]+0.099*[#   5]
          +0.001*[#   2]+0.001*[#   3]
    |psi|^2 = 1.000
==== e(   5) =    -5.53854 eV ==== 
     psi = 0.312*[#   5]+0.292*[#   7]+0.292*[#   9]+0.104*[#   8]
    |psi|^2 = 1.000
==== e(   6) =     3.17714 eV ==== 
     psi = 0.899*[#   1]+0.085*[#   4]+0.004*[#   7]+0.004*[#   9]+0.003*[#   6]
          +0.002*[#   2]+0.002*[#   3]
    |psi|^2 = 0.997
==== e(   7) =     7.57915 eV ==== 
     psi = 0.325*[#   2]+0.325*[#   3]+0.299*[#   4]+0.045*[#   1]+0.002*[#   6]
          +0.001*[#   8]
    |psi|^2 = 0.997
==== e(   8) =    14.87865 eV ==== 
     psi = 0.583*[#   4]+0.161*[#   2]+0.161*[#   3]+0.045*[#   1]+0.001*[#   7]
          +0.001*[#   9]
    |psi|^2 = 0.953
==== e(   9) =    16.04571 eV ==== 
     psi = 0.483*[#   2]+0.483*[#   3]
    |psi|^2 = 0.966
==== e(  10) =    19.40787 eV ==== 
     psi = 0.004*[#   4]+0.001*[#   1]
    |psi|^2 = 0.006
==== e(  11) =    22.69549 eV ==== 
     psi = 0.011*[#   4]+0.006*[#   2]+0.006*[#   3]
    |psi|^2 = 0.023
==== e(  12) =    23.70226 eV ==== 
     psi = 0.009*[#   2]+0.009*[#   3]
    |psi|^2 = 0.019
==== e(  13) =    24.92524 eV ==== 
     psi = 0.003*[#   4]+0.002*[#   2]+0.002*[#   3]
    |psi|^2 = 0.006

 k =   0.2500000000  0.7500000000  0.2500000000
==== e(   1) =    -5.88105 eV ==== 
     psi = 0.766*[#   6]+0.167*[#   8]+0.056*[#   5]+0.004*[#   7]+0.004*[#   9]
          +0.002*[#   1]
    |psi|^2 = 1.000
==== e(   2) =    -5.77789 eV ==== 
     psi = 0.527*[#   8]+0.176*[#   5]+0.173*[#   6]+0.057*[#   7]+0.057*[#   9]
          +0.004*[#   2]+0.004*[#   3]
    |psi|^2 = 1.000
==== e(   3) =    -5.67152 eV ==== 
     psi = 0.486*[#   5]+0.175*[#   7]+0.175*[#   9]+0.162*[#   8]
    |psi|^2 = 1.000
==== e(   4) =    -5.62372 eV ==== 
     psi = 0.435*[#   7]+0.435*[#   9]+0.055*[#   6]+0.051*[#   8]+0.017*[#   5]
          +0.006*[#   4]+0.001*[#   1]
    |psi|^2 = 1.000
==== e(   5) =    -5.53248 eV ==== 
     psi = 0.325*[#   7]+0.325*[#   9]+0.263*[#   5]+0.088*[#   8]
    |psi|^2 = 1.000
==== e(   6) =     3.46534 eV ==== 
     psi = 0.811*[#   1]+0.175*[#   4]+0.002*[#   2]+0.002*[#   3]+0.002*[#   7]
          +0.002*[#   9]+0.001*[#   8]
    |psi|^2 = 0.998
==== e(   7) =     8.81127 eV ==== 
     psi = 0.390*[#   4]+0.241*[#   2]+0.241*[#   3]+0.118*[#   1]+0.003*[#   6]
          +0.002*[#   8]
    |psi|^2 = 0.994
==== e(   8) =    12.29482 eV ==== 
     psi = 0.409*[#   4]+0.240*[#   2]+0.240*[#   3]+0.061*[#   1]+0.002*[#   6]
          +0.002*[#   7]+0.002*[#   9]+0.002*[#   8]
    |psi|^2 = 0.957
==== e(   9) =    14.68967 eV ==== 
     psi = 0.487*[#   2]+0.487*[#   3]
    |psi|^2 = 0.975
==== e(  10) =    18.15288 eV ==== 
     psi = 0.008*[#   4]+0.004*[#   1]+0.001*[#   2]+0.001*[#   3]
    |psi|^2 = 0.014
==== e(  11) =    23.00127 eV ==== 
     psi = 0.008*[#   4]+0.007*[#   2]+0.007*[#   3]+0.001*[#   1]
    |psi|^2 = 0.024
==== e(  12) =    25.95567 eV ==== 
     psi = 0.002*[#   2]+0.002*[#   3]
    |psi|^2 = 0.004
==== e(  13) =    26.28527 eV ==== 
     psi = 0.006*[#   2]+0.006*[#   3]
    |psi|^2 = 0.012

 k =   0.1250000000  0.8750000000  0.1250000000
==== e(   1) =    -5.94287 eV ==== 
     psi = 0.966*[#   6]+0.023*[#   8]+0.008*[#   5]
    |psi|^2 = 1.000
==== e(   2) =    -5.85779 eV ==== 
     psi = 0.721*[#   8]+0.240*[#   5]+0.030*[#   6]+0.003*[#   1]+0.002*[#   2]
          +0.002*[#   3]
    |psi|^2 = 1.000
==== e(   3) =    -5.58055 eV ==== 
     psi = 0.655*[#   5]+0.218*[#   8]+0.063*[#   7]+0.063*[#   9]
    |psi|^2 = 1.000
==== e(   4) =    -5.54589 eV ==== 
     psi = 0.498*[#   7]+0.498*[#   9]+0.003*[#   4]
    |psi|^2 = 1.000
==== e(   5) =    -5.52109 eV ==== 
     psi = 0.437*[#   7]+0.437*[#   9]+0.094*[#   5]+0.031*[#   8]
    |psi|^2 = 1.000
==== e(   6) =     4.07478 eV ==== 
     psi = 0.860*[#   1]+0.130*[#   4]+0.003*[#   8]+0.001*[#   2]+0.001*[#   3]
          +0.001*[#   5]
    |psi|^2 = 0.997
==== e(   7) =     8.79601 eV ==== 
     psi = 0.844*[#   4]+0.130*[#   1]+0.008*[#   2]+0.008*[#   3]
    |psi|^2 = 0.992
==== e(   8) =    12.05877 eV ==== 
     psi = 0.466*[#   2]+0.466*[#   3]+0.016*[#   4]+0.002*[#   6]+0.002*[#   8]
          
    |psi|^2 = 0.954
==== e(   9) =    13.69009 eV ==== 
     psi = 0.493*[#   2]+0.493*[#   3]
    |psi|^2 = 0.986
==== e(  10) =    17.34528 eV ==== 
     psi = 0.005*[#   1]+0.004*[#   2]+0.004*[#   3]+0.004*[#   4]
    |psi|^2 = 0.017
==== e(  11) =    19.48205 eV ==== 
     psi = 0.014*[#   2]+0.014*[#   3]+0.002*[#   4]
    |psi|^2 = 0.030
==== e(  12) =    29.16570 eV ==== 
     psi = 0.001*[#   2]+0.001*[#   3]
    |psi|^2 = 0.003
==== e(  13) =    29.50167 eV ==== 
     psi = 0.002*[#   2]+0.002*[#   3]
    |psi|^2 = 0.004

 k =   0.0000000000  1.0000000000  0.0000000000
==== e(   1) =    -5.97701 eV ==== 
     psi = 1.000*[#   6]
    |psi|^2 = 1.000
==== e(   2) =    -5.88893 eV ==== 
     psi = 0.746*[#   8]+0.249*[#   5]+0.005*[#   1]
    |psi|^2 = 1.000
==== e(   3) =    -5.55209 eV ==== 
     psi = 0.750*[#   5]+0.250*[#   8]
    |psi|^2 = 1.000
==== e(   4) =    -5.50635 eV ==== 
     psi = 1.000*[#   9]
    |psi|^2 = 1.000
==== e(   5) =    -5.50635 eV ==== 
     psi = 1.000*[#   7]
    |psi|^2 = 1.000
==== e(   6) =     4.53424 eV ==== 
     psi = 0.988*[#   1]+0.004*[#   8]+0.001*[#   5]
    |psi|^2 = 0.993
==== e(   7) =     7.98810 eV ==== 
     psi = 0.999*[#   4]
    |psi|^2 = 0.999
==== e(   8) =    13.33211 eV ==== 
     psi = 0.804*[#   2]+0.186*[#   3]
    |psi|^2 = 0.989
==== e(   9) =    13.33211 eV ==== 
     psi = 0.804*[#   3]+0.186*[#   2]
    |psi|^2 = 0.989
==== e(  10) =    16.64231 eV ==== 
     psi = 0.006*[#   1]
    |psi|^2 = 0.007
==== e(  11) =    17.91714 eV ==== 

    |psi|^2 = 0.000
==== e(  12) =    30.58103 eV ==== 

    |psi|^2 = 0.000
==== e(  13) =    32.23314 eV ==== 
     psi = 0.004*[#   2]+0.003*[#   3]
    |psi|^2 = 0.007

 k =  -0.1250000000  1.1250000000 -0.1250000000
==== e(   1) =    -5.94287 eV ==== 
     psi = 0.966*[#   6]+0.023*[#   8]+0.008*[#   5]
    |psi|^2 = 1.000
==== e(   2) =    -5.85779 eV ==== 
     psi = 0.721*[#   8]+0.240*[#   5]+0.030*[#   6]+0.003*[#   1]+0.002*[#   2]
          +0.002*[#   3]
    |psi|^2 = 1.000
==== e(   3) =    -5.58055 eV ==== 
     psi = 0.655*[#   5]+0.218*[#   8]+0.063*[#   7]+0.063*[#   9]
    |psi|^2 = 1.000
==== e(   4) =    -5.54589 eV ==== 
     psi = 0.498*[#   7]+0.498*[#   9]+0.003*[#   4]
    |psi|^2 = 1.000
==== e(   5) =    -5.52109 eV ==== 
     psi = 0.437*[#   7]+0.437*[#   9]+0.094*[#   5]+0.031*[#   8]
    |psi|^2 = 1.000
==== e(   6) =     4.07478 eV ==== 
     psi = 0.860*[#   1]+0.130*[#   4]+0.003*[#   8]+0.001*[#   2]+0.001*[#   3]
          +0.001*[#   5]
    |psi|^2 = 0.997
==== e(   7) =     8.79601 eV ==== 
     psi = 0.844*[#   4]+0.130*[#   1]+0.008*[#   2]+0.008*[#   3]
    |psi|^2 = 0.992
==== e(   8) =    12.05877 eV ==== 
     psi = 0.466*[#   2]+0.466*[#   3]+0.016*[#   4]+0.002*[#   6]+0.002*[#   8]
          
    |psi|^2 = 0.954
==== e(   9) =    13.69009 eV ==== 
     psi = 0.493*[#   2]+0.493*[#   3]
    |psi|^2 = 0.986
==== e(  10) =    17.34528 eV ==== 
     psi = 0.005*[#   1]+0.004*[#   2]+0.004*[#   3]+0.004*[#   4]
    |psi|^2 = 0.017
==== e(  11) =    19.48205 eV ==== 
     psi = 0.014*[#   2]+0.014*[#   3]+0.002*[#   4]
    |psi|^2 = 0.030
==== e(  12) =    29.16570 eV ==== 
     psi = 0.001*[#   2]+0.001*[#   3]
    |psi|^2 = 0.003
==== e(  13) =    29.50167 eV ==== 
     psi = 0.002*[#   2]+0.002*[#   3]
    |psi|^2 = 0.004

 k =  -0.2500000000  1.2500000000 -0.2500000000
==== e(   1) =    -5.88105 eV ==== 
     psi = 0.766*[#   6]+0.167*[#   8]+0.056*[#   5]+0.004*[#   7]+0.004*[#   9]
          +0.002*[#   1]
    |psi|^2 = 1.000
==== e(   2) =    -5.77789 eV ==== 
     psi = 0.527*[#   8]+0.176*[#   5]+0.173*[#   6]+0.057*[#   7]+0.057*[#   9]
          +0.004*[#   2]+0.004*[#   3]
    |psi|^2 = 1.000
==== e(   3) =    -5.67152 eV ==== 
     psi = 0.486*[#   5]+0.175*[#   7]+0.175*[#   9]+0.162*[#   8]
    |psi|^2 = 1.000
==== e(   4) =    -5.62372 eV ==== 
     psi = 0.435*[#   7]+0.435*[#   9]+0.055*[#   6]+0.051*[#   8]+0.017*[#   5]
          +0.006*[#   4]+0.001*[#   1]
    |psi|^2 = 1.000
==== e(   5) =    -5.53248 eV ==== 
     psi = 0.325*[#   7]+0.325*[#   9]+0.263*[#   5]+0.088*[#   8]
    |psi|^2 = 1.000
==== e(   6) =     3.46534 eV ==== 
     psi = 0.811*[#   1]+0.175*[#   4]+0.002*[#   2]+0.002*[#   3]+0.002*[#   7]
          +0.002*[#   9]+0.001*[#   8]
    |psi|^2 = 0.998
==== e(   7) =     8.81127 eV ==== 
     psi = 0.390*[#   4]+0.241*[#   2]+0.241*[#   3]+0.118*[#   1]+0.003*[#   6]
          +0.002*[#   8]
    |psi|^2 = 0.994
==== e(   8) =    12.29482 eV ==== 
     psi = 0.409*[#   4]+0.240*[#   2]+0.240*[#   3]+0.061*[#   1]+0.002*[#   6]
          +0.002*[#   7]+0.002*[#   9]+0.002*[#   8]
    |psi|^2 = 0.957
==== e(   9) =    14.68967 eV ==== 
     psi = 0.487*[#   2]+0.487*[#   3]
    |psi|^2 = 0.975
==== e(  10) =    18.15288 eV ==== 
     psi = 0.008*[#   4]+0.004*[#   1]+0.001*[#   2]+0.001*[#   3]
    |psi|^2 = 0.014
==== e(  11) =    23.00127 eV ==== 
     psi = 0.008*[#   4]+0.007*[#   2]+0.007*[#   3]+0.001*[#   1]
    |psi|^2 = 0.024
==== e(  12) =    25.95567 eV ==== 
     psi = 0.002*[#   2]+0.002*[#   3]
    |psi|^2 = 0.004
==== e(  13) =    26.28527 eV ==== 
     psi = 0.006*[#   2]+0.006*[#   3]
    |psi|^2 = 0.012

 k =  -0.3750000000  1.3750000000 -0.3750000000
==== e(   1) =    -5.83670 eV ==== 
     psi = 0.672*[#   6]+0.154*[#   8]+0.058*[#   7]+0.058*[#   9]+0.051*[#   5]
          +0.005*[#   1]+0.001*[#   4]
    |psi|^2 = 1.000
==== e(   2) =    -5.79292 eV ==== 
     psi = 0.298*[#   8]+0.298*[#   7]+0.298*[#   9]+0.099*[#   5]+0.003*[#   1]
          +0.002*[#   4]+0.001*[#   2]+0.001*[#   3]
    |psi|^2 = 1.000
==== e(   3) =    -5.76526 eV ==== 
     psi = 0.438*[#   5]+0.208*[#   7]+0.208*[#   9]+0.146*[#   8]
    |psi|^2 = 1.000
==== e(   4) =    -5.58627 eV ==== 
     psi = 0.322*[#   6]+0.296*[#   8]+0.140*[#   7]+0.140*[#   9]+0.099*[#   5]
          +0.001*[#   2]+0.001*[#   3]
    |psi|^2 = 1.000
==== e(   5) =    -5.53854 eV ==== 
     psi = 0.312*[#   5]+0.292*[#   7]+0.292*[#   9]+0.104*[#   8]
    |psi|^2 = 1.000
==== e(   6) =     3.17714 eV ==== 
     psi = 0.899*[#   1]+0.085*[#   4]+0.004*[#   7]+0.004*[#   9]+0.003*[#   6]
          +0.002*[#   2]+0.002*[#   3]
    |psi|^2 = 0.997
==== e(   7) =     7.57915 eV ==== 
     psi = 0.325*[#   2]+0.325*[#   3]+0.299*[#   4]+0.045*[#   1]+0.002*[#   6]
          +0.001*[#   8]
    |psi|^2 = 0.997
==== e(   8) =    14.87865 eV ==== 
     psi = 0.583*[#   4]+0.161*[#   2]+0.161*[#   3]+0.045*[#   1]+0.001*[#   7]
          +0.001*[#   9]
    |psi|^2 = 0.953
==== e(   9) =    16.04571 eV ==== 
     psi = 0.483*[#   2]+0.483*[#   3]
    |psi|^2 = 0.966
==== e(  10) =    19.40787 eV ==== 
     psi = 0.004*[#   4]+0.001*[#   1]
    |psi|^2 = 0.006
==== e(  11) =    22.69549 eV ==== 
     psi = 0.011*[#   4]+0.006*[#   2]+0.006*[#   3]
    |psi|^2 = 0.023
==== e(  12) =    23.70226 eV ==== 
     psi = 0.009*[#   2]+0.009*[#   3]
    |psi|^2 = 0.019
==== e(  13) =    24.92524 eV ==== 
     psi = 0.003*[#   4]+0.002*[#   2]+0.002*[#   3]
    |psi|^2 = 0.006

 k =   0.6250000000  0.6250000000  0.6250000000
==== e(   1) =    -5.83575 eV ==== 
     psi = 0.330*[#   6]+0.330*[#   7]+0.330*[#   9]+0.010*[#   1]
    |psi|^2 = 1.000
==== e(   2) =    -5.79423 eV ==== 
     psi = 0.524*[#   5]+0.317*[#   9]+0.079*[#   6]+0.079*[#   7]
    |psi|^2 = 1.000
==== e(   3) =    -5.79423 eV ==== 
     psi = 0.524*[#   8]+0.238*[#   6]+0.238*[#   7]
    |psi|^2 = 1.000
==== e(   4) =    -5.57224 eV ==== 
     psi = 0.476*[#   5]+0.349*[#   9]+0.087*[#   7]+0.087*[#   6]
    |psi|^2 = 1.000
==== e(   5) =    -5.57224 eV ==== 
     psi = 0.476*[#   8]+0.262*[#   6]+0.262*[#   7]
    |psi|^2 = 1.000
==== e(   6) =     2.09008 eV ==== 
     psi = 0.756*[#   1]+0.078*[#   2]+0.078*[#   3]+0.078*[#   4]+0.002*[#   6]
          +0.002*[#   7]+0.002*[#   9]
    |psi|^2 = 0.999
==== e(   7) =     8.72913 eV ==== 
     psi = 0.250*[#   2]+0.250*[#   3]+0.250*[#   4]+0.225*[#   1]
    |psi|^2 = 0.977
==== e(   8) =    17.07146 eV ==== 
     psi = 0.650*[#   2]+0.165*[#   3]+0.162*[#   4]
    |psi|^2 = 0.977
==== e(   9) =    17.07146 eV ==== 
     psi = 0.489*[#   4]+0.486*[#   3]+0.002*[#   2]
    |psi|^2 = 0.977
==== e(  10) =    20.35345 eV ==== 
     psi = 0.005*[#   1]+0.003*[#   2]+0.003*[#   3]+0.003*[#   4]
    |psi|^2 = 0.014
==== e(  11) =    21.61097 eV ==== 
     psi = 0.004*[#   1]+0.001*[#   2]+0.001*[#   3]+0.001*[#   4]
    |psi|^2 = 0.007
==== e(  12) =    22.79097 eV ==== 
     psi = 0.003*[#   2]
    |psi|^2 = 0.005
==== e(  13) =    22.79097 eV ==== 
     psi = 0.003*[#   3]+0.003*[#   4]
    |psi|^2 = 0.005

 k =   0.5000000000  0.7500000000  0.5000000000
==== e(   1) =    -5.81985 eV ==== 
     psi = 0.547*[#   6]+0.143*[#   7]+0.143*[#   9]+0.119*[#   8]+0.040*[#   5]
          +0.006*[#   1]+0.002*[#   4]
    |psi|^2 = 1.000
==== e(   2) =    -5.79803 eV ==== 
     psi = 0.288*[#   8]+0.282*[#   7]+0.282*[#   9]+0.096*[#   5]+0.047*[#   6]
          +0.003*[#   4]+0.001*[#   1]
    |psi|^2 = 1.000
==== e(   3) =    -5.76676 eV ==== 
     psi = 0.451*[#   5]+0.199*[#   7]+0.199*[#   9]+0.150*[#   8]
    |psi|^2 = 1.000
==== e(   4) =    -5.57878 eV ==== 
     psi = 0.301*[#   7]+0.301*[#   9]+0.299*[#   5]+0.100*[#   8]
    |psi|^2 = 1.000
==== e(   5) =    -5.56895 eV ==== 
     psi = 0.401*[#   6]+0.342*[#   8]+0.114*[#   5]+0.070*[#   7]+0.070*[#   9]
          +0.001*[#   2]+0.001*[#   3]
    |psi|^2 = 1.000
==== e(   6) =     2.79818 eV ==== 
     psi = 0.814*[#   1]+0.086*[#   2]+0.086*[#   3]+0.005*[#   6]+0.002*[#   4]
          +0.002*[#   7]+0.002*[#   9]
    |psi|^2 = 0.998
==== e(   7) =     8.17268 eV ==== 
     psi = 0.324*[#   4]+0.266*[#   2]+0.266*[#   3]+0.130*[#   1]+0.001*[#   7]
          +0.001*[#   9]
    |psi|^2 = 0.991
==== e(   8) =    14.43505 eV ==== 
     psi = 0.628*[#   4]+0.139*[#   2]+0.139*[#   3]+0.043*[#   1]+0.002*[#   7]
          +0.002*[#   9]
    |psi|^2 = 0.953
==== e(   9) =    16.75119 eV ==== 
     psi = 0.483*[#   2]+0.483*[#   3]
    |psi|^2 = 0.967
==== e(  10) =    19.91108 eV ==== 
     psi = 0.006*[#   4]+0.002*[#   1]+0.002*[#   2]+0.002*[#   3]
    |psi|^2 = 0.012
==== e(  11) =    22.22153 eV ==== 
     psi = 0.019*[#   4]+0.001*[#   1]
    |psi|^2 = 0.021
==== e(  12) =    23.23537 eV ==== 
     psi = 0.008*[#   2]+0.008*[#   3]
    |psi|^2 = 0.015
==== e(  13) =    25.61143 eV ==== 
     psi = 0.005*[#   4]
    |psi|^2 = 0.006

 k =   0.3750000000  0.8750000000  0.3750000000
==== e(   1) =    -5.85197 eV ==== 
     psi = 0.577*[#   6]+0.314*[#   8]+0.105*[#   5]+0.003*[#   1]+0.001*[#   7]
          +0.001*[#   9]
    |psi|^2 = 1.000
==== e(   2) =    -5.72794 eV ==== 
     psi = 0.323*[#   7]+0.323*[#   9]+0.166*[#   8]+0.121*[#   6]+0.055*[#   5]
          +0.007*[#   4]+0.003*[#   2]+0.003*[#   3]
    |psi|^2 = 1.000
==== e(   3) =    -5.68545 eV ==== 
     psi = 0.577*[#   5]+0.192*[#   8]+0.115*[#   7]+0.115*[#   9]
    |psi|^2 = 1.000
==== e(   4) =    -5.64486 eV ==== 
     psi = 0.295*[#   6]+0.266*[#   8]+0.171*[#   7]+0.171*[#   9]+0.089*[#   5]
          +0.004*[#   4]+0.003*[#   2]+0.003*[#   3]
    |psi|^2 = 1.000
==== e(   5) =    -5.57488 eV ==== 
     psi = 0.385*[#   7]+0.385*[#   9]+0.172*[#   5]+0.057*[#   8]
    |psi|^2 = 1.000
==== e(   6) =     3.74060 eV ==== 
     psi = 0.890*[#   1]+0.046*[#   2]+0.046*[#   3]+0.009*[#   4]+0.005*[#   6]
          
    |psi|^2 = 0.998
==== e(   7) =     8.49288 eV ==== 
     psi = 0.346*[#   4]+0.303*[#   2]+0.303*[#   3]+0.035*[#   1]+0.003*[#   8]
          +0.002*[#   6]+0.001*[#   7]+0.001*[#   9]+0.001*[#   5]
    |psi|^2 = 0.997
==== e(   8) =    11.37307 eV ==== 
     psi = 0.622*[#   4]+0.141*[#   2]+0.141*[#   3]+0.065*[#   1]+0.003*[#   7]
          +0.003*[#   9]+0.001*[#   8]
    |psi|^2 = 0.980
==== e(   9) =    15.40981 eV ==== 
     psi = 0.482*[#   2]+0.482*[#   3]+0.001*[#   5]
    |psi|^2 = 0.965
==== e(  10) =    18.59376 eV ==== 
     psi = 0.003*[#   1]+0.002*[#   4]+0.002*[#   2]+0.002*[#   3]
    |psi|^2 = 0.009
==== e(  11) =    25.07216 eV ==== 
     psi = 0.005*[#   4]
    |psi|^2 = 0.005
==== e(  12) =    25.54338 eV ==== 
     psi = 0.009*[#   2]+0.009*[#   3]
    |psi|^2 = 0.018
==== e(  13) =    26.56590 eV ==== 
     psi = 0.001*[#   4]+0.001*[#   2]+0.001*[#   3]
    |psi|^2 = 0.005

 k =   0.2500000000  1.0000000000  0.2500000000
==== e(   1) =    -5.89906 eV ==== 
     psi = 0.713*[#   6]+0.213*[#   8]+0.071*[#   5]+0.002*[#   1]
    |psi|^2 = 1.000
==== e(   2) =    -5.78524 eV ==== 
     psi = 0.531*[#   8]+0.280*[#   6]+0.177*[#   5]+0.006*[#   2]+0.006*[#   3]
          
    |psi|^2 = 1.000
==== e(   3) =    -5.61073 eV ==== 
     psi = 0.749*[#   5]+0.250*[#   8]
    |psi|^2 = 1.000
==== e(   4) =    -5.60702 eV ==== 
     psi = 0.496*[#   7]+0.496*[#   9]+0.008*[#   4]
    |psi|^2 = 1.000
==== e(   5) =    -5.54810 eV ==== 
     psi = 0.500*[#   7]+0.500*[#   9]
    |psi|^2 = 1.000
==== e(   6) =     4.45196 eV ==== 
     psi = 0.984*[#   1]+0.005*[#   2]+0.005*[#   3]+0.001*[#   6]
    |psi|^2 = 0.996
==== e(   7) =     8.97637 eV ==== 
     psi = 0.990*[#   4]+0.004*[#   7]+0.004*[#   9]
    |psi|^2 = 0.998
==== e(   8) =    10.03392 eV ==== 
     psi = 0.482*[#   2]+0.482*[#   3]+0.008*[#   1]+0.005*[#   6]+0.005*[#   8]
          +0.002*[#   5]
    |psi|^2 = 0.985
==== e(   9) =    14.25482 eV ==== 
     psi = 0.489*[#   2]+0.489*[#   3]+0.001*[#   5]
    |psi|^2 = 0.980
==== e(  10) =    17.75940 eV ==== 
     psi = 0.003*[#   1]+0.001*[#   2]+0.001*[#   3]
    |psi|^2 = 0.006
==== e(  11) =    22.72004 eV ==== 
     psi = 0.004*[#   2]+0.004*[#   3]
    |psi|^2 = 0.009
==== e(  12) =    28.09581 eV ==== 

    |psi|^2 = 0.000
==== e(  13) =    28.38692 eV ==== 
     psi = 0.001*[#   4]
    |psi|^2 = 0.001

 k =   0.1250000000  1.1250000000  0.1250000000
==== e(   1) =    -5.94287 eV ==== 
     psi = 0.966*[#   6]+0.023*[#   8]+0.008*[#   5]
    |psi|^2 = 1.000
==== e(   2) =    -5.85779 eV ==== 
     psi = 0.721*[#   8]+0.240*[#   5]+0.030*[#   6]+0.003*[#   1]+0.002*[#   2]
          +0.002*[#   3]
    |psi|^2 = 1.000
==== e(   3) =    -5.58055 eV ==== 
     psi = 0.655*[#   5]+0.218*[#   8]+0.063*[#   7]+0.063*[#   9]
    |psi|^2 = 1.000
==== e(   4) =    -5.54589 eV ==== 
     psi = 0.498*[#   7]+0.498*[#   9]+0.003*[#   4]
    |psi|^2 = 1.000
==== e(   5) =    -5.52109 eV ==== 
     psi = 0.437*[#   7]+0.437*[#   9]+0.094*[#   5]+0.031*[#   8]
    |psi|^2 = 1.000
==== e(   6) =     4.07478 eV ==== 
     psi = 0.860*[#   1]+0.130*[#   4]+0.003*[#   8]+0.001*[#   2]+0.001*[#   3]
          +0.001*[#   5]
    |psi|^2 = 0.997
==== e(   7) =     8.79601 eV ==== 
     psi = 0.844*[#   4]+0.130*[#   1]+0.008*[#   2]+0.008*[#   3]
    |psi|^2 = 0.992
==== e(   8) =    12.05877 eV ==== 
     psi = 0.466*[#   2]+0.466*[#   3]+0.016*[#   4]+0.002*[#   6]+0.002*[#   8]
          
    |psi|^2 = 0.954
==== e(   9) =    13.69009 eV ==== 
     psi = 0.493*[#   2]+0.493*[#   3]
    |psi|^2 = 0.986
==== e(  10) =    17.34528 eV ==== 
     psi = 0.005*[#   1]+0.004*[#   2]+0.004*[#   3]+0.004*[#   4]
    |psi|^2 = 0.017
==== e(  11) =    19.48205 eV ==== 
     psi = 0.014*[#   2]+0.014*[#   3]+0.002*[#   4]
    |psi|^2 = 0.030
==== e(  12) =    29.16570 eV ==== 
     psi = 0.001*[#   2]+0.001*[#   3]
    |psi|^2 = 0.003
==== e(  13) =    29.50167 eV ==== 
     psi = 0.002*[#   2]+0.002*[#   3]
    |psi|^2 = 0.004

 k =   0.0000000000  1.2500000000  0.0000000000
==== e(   1) =    -5.95335 eV ==== 
     psi = 1.000*[#   6]
    |psi|^2 = 1.000
==== e(   2) =    -5.85297 eV ==== 
     psi = 0.746*[#   8]+0.249*[#   5]+0.004*[#   1]+0.001*[#   4]
    |psi|^2 = 1.000
==== e(   3) =    -5.57027 eV ==== 
     psi = 0.750*[#   5]+0.250*[#   8]
    |psi|^2 = 1.000
==== e(   4) =    -5.55401 eV ==== 
     psi = 0.999*[#   9]+0.001*[#   3]
    |psi|^2 = 1.000
==== e(   5) =    -5.55401 eV ==== 
     psi = 0.999*[#   7]+0.001*[#   2]
    |psi|^2 = 1.000
==== e(   6) =     2.97971 eV ==== 
     psi = 0.695*[#   1]+0.299*[#   4]+0.004*[#   8]+0.001*[#   5]
    |psi|^2 = 0.999
==== e(   7) =    10.12113 eV ==== 
     psi = 0.684*[#   4]+0.291*[#   1]
    |psi|^2 = 0.976
==== e(   8) =    13.82908 eV ==== 
     psi = 0.984*[#   3]+0.001*[#   2]+0.001*[#   9]
    |psi|^2 = 0.986
==== e(   9) =    13.82908 eV ==== 
     psi = 0.984*[#   2]+0.001*[#   3]+0.001*[#   7]
    |psi|^2 = 0.986
==== e(  10) =    17.17328 eV ==== 
     psi = 0.011*[#   4]+0.009*[#   1]
    |psi|^2 = 0.020
==== e(  11) =    18.16729 eV ==== 

    |psi|^2 = 0.000
==== e(  12) =    30.41826 eV ==== 

    |psi|^2 = 0.000
==== e(  13) =    30.48351 eV ==== 
     psi = 0.005*[#   2]+0.003*[#   3]
    |psi|^2 = 0.008

 k =  -0.1250000000  1.3750000000 -0.1250000000
==== e(   1) =    -5.90325 eV ==== 
     psi = 0.974*[#   6]+0.012*[#   8]+0.004*[#   5]+0.004*[#   7]+0.004*[#   9]
          
    |psi|^2 = 1.000
==== e(   2) =    -5.80126 eV ==== 
     psi = 0.721*[#   8]+0.240*[#   5]+0.013*[#   6]+0.011*[#   7]+0.011*[#   9]
          +0.001*[#   1]+0.001*[#   2]+0.001*[#   3]
    |psi|^2 = 1.000
==== e(   3) =    -5.65310 eV ==== 
     psi = 0.355*[#   5]+0.262*[#   7]+0.262*[#   9]+0.118*[#   8]
    |psi|^2 = 1.000
==== e(   4) =    -5.62164 eV ==== 
     psi = 0.483*[#   7]+0.483*[#   9]+0.014*[#   8]+0.011*[#   6]+0.005*[#   5]
          +0.002*[#   4]+0.001*[#   1]
    |psi|^2 = 1.000
==== e(   5) =    -5.55912 eV ==== 
     psi = 0.395*[#   5]+0.237*[#   7]+0.237*[#   9]+0.132*[#   8]
    |psi|^2 = 1.000
==== e(   6) =     2.14626 eV ==== 
     psi = 0.654*[#   1]+0.323*[#   4]+0.008*[#   2]+0.008*[#   3]+0.002*[#   8]
          
    |psi|^2 = 0.999
==== e(   7) =    11.09637 eV ==== 
     psi = 0.446*[#   4]+0.301*[#   1]+0.117*[#   2]+0.117*[#   3]
    |psi|^2 = 0.982
==== e(   8) =    13.84332 eV ==== 
     psi = 0.341*[#   2]+0.341*[#   3]+0.202*[#   4]+0.034*[#   1]+0.001*[#   6]
          +0.001*[#   7]+0.001*[#   9]
    |psi|^2 = 0.922
==== e(   9) =    14.63671 eV ==== 
     psi = 0.488*[#   2]+0.488*[#   3]
    |psi|^2 = 0.978
==== e(  10) =    18.24309 eV ==== 
     psi = 0.010*[#   4]+0.004*[#   1]+0.001*[#   2]+0.001*[#   3]
    |psi|^2 = 0.016
==== e(  11) =    20.09590 eV ==== 
     psi = 0.021*[#   2]+0.021*[#   3]+0.011*[#   4]+0.002*[#   1]
    |psi|^2 = 0.054
==== e(  12) =    27.26735 eV ==== 
     psi = 0.006*[#   2]+0.006*[#   3]
    |psi|^2 = 0.013
==== e(  13) =    27.45077 eV ==== 
     psi = 0.005*[#   2]+0.005*[#   3]
    |psi|^2 = 0.010

 k =  -0.2500000000  1.5000000000 -0.2500000000
==== e(   1) =    -5.84374 eV ==== 
     psi = 0.812*[#   6]+0.061*[#   8]+0.050*[#   7]+0.050*[#   9]+0.020*[#   5]
          +0.003*[#   1]
    |psi|^2 = 1.000
==== e(   2) =    -5.77744 eV ==== 
     psi = 0.407*[#   8]+0.227*[#   7]+0.227*[#   9]+0.136*[#   5]
    |psi|^2 = 1.000
==== e(   3) =    -5.74865 eV ==== 
     psi = 0.361*[#   5]+0.259*[#   7]+0.259*[#   9]+0.120*[#   8]
    |psi|^2 = 1.000
==== e(   4) =    -5.64006 eV ==== 
     psi = 0.281*[#   8]+0.219*[#   7]+0.219*[#   9]+0.184*[#   6]+0.094*[#   5]
          +0.001*[#   1]
    |psi|^2 = 1.000
==== e(   5) =    -5.56337 eV ==== 
     psi = 0.389*[#   5]+0.240*[#   7]+0.240*[#   9]+0.130*[#   8]
    |psi|^2 = 1.000
==== e(   6) =     1.84305 eV ==== 
     psi = 0.689*[#   1]+0.226*[#   4]+0.039*[#   2]+0.039*[#   3]+0.002*[#   7]
          +0.002*[#   9]
    |psi|^2 = 0.999
==== e(   7) =     9.93279 eV ==== 
     psi = 0.253*[#   2]+0.253*[#   3]+0.250*[#   1]+0.214*[#   4]+0.002*[#   6]
          
    |psi|^2 = 0.974
==== e(   8) =    15.77200 eV ==== 
     psi = 0.529*[#   4]+0.175*[#   2]+0.175*[#   3]+0.051*[#   1]
    |psi|^2 = 0.931
==== e(   9) =    15.91998 eV ==== 
     psi = 0.481*[#   2]+0.481*[#   3]
    |psi|^2 = 0.964
==== e(  10) =    19.53843 eV ==== 
     psi = 0.001*[#   2]+0.001*[#   3]
    |psi|^2 = 0.003
==== e(  11) =    22.93930 eV ==== 
     psi = 0.028*[#   2]+0.028*[#   3]+0.018*[#   4]
    |psi|^2 = 0.075
==== e(  12) =    24.64939 eV ==== 
     psi = 0.011*[#   2]+0.011*[#   3]
    |psi|^2 = 0.021
==== e(  13) =    24.65243 eV ==== 
     psi = 0.004*[#   4]+0.002*[#   1]
    |psi|^2 = 0.007

 k =   0.7500000000  0.7500000000  0.7500000000
==== e(   1) =    -5.82231 eV ==== 
     psi = 0.332*[#   6]+0.332*[#   7]+0.332*[#   9]+0.004*[#   1]
    |psi|^2 = 1.000
==== e(   2) =    -5.77889 eV ==== 
     psi = 0.457*[#   9]+0.314*[#   5]+0.114*[#   6]+0.114*[#   7]
    |psi|^2 = 1.000
==== e(   3) =    -5.77889 eV ==== 
     psi = 0.343*[#   6]+0.343*[#   7]+0.314*[#   8]
    |psi|^2 = 1.000
==== e(   4) =    -5.63965 eV ==== 
     psi = 0.686*[#   5]+0.209*[#   9]+0.052*[#   6]+0.052*[#   7]
    |psi|^2 = 1.000
==== e(   5) =    -5.63965 eV ==== 
     psi = 0.686*[#   8]+0.157*[#   6]+0.157*[#   7]
    |psi|^2 = 1.000
==== e(   6) =     0.70011 eV ==== 
     psi = 0.687*[#   1]+0.103*[#   2]+0.103*[#   3]+0.103*[#   4]
    |psi|^2 = 0.999
==== e(   7) =    12.01393 eV ==== 
     psi = 0.288*[#   1]+0.215*[#   2]+0.215*[#   3]+0.215*[#   4]
    |psi|^2 = 0.934
==== e(   8) =    17.63588 eV ==== 
     psi = 0.637*[#   2]+0.170*[#   4]+0.154*[#   3]
    |psi|^2 = 0.962
==== e(   9) =    17.63588 eV ==== 
     psi = 0.487*[#   3]+0.471*[#   4]+0.004*[#   2]
    |psi|^2 = 0.962
[...]
==== e(   8) =    12.66582 eV ==== 
     psi = 0.449*[#   2]+0.449*[#   4]+0.076*[#   1]+0.002*[#   7]+0.002*[#   6]
          +0.002*[#   9]
    |psi|^2 = 0.981
==== e(   9) =    14.55565 eV ==== 
     psi = 0.604*[#   3]+0.136*[#   2]+0.136*[#   4]+0.002*[#   5]
    |psi|^2 = 0.879
==== e(  10) =    20.13212 eV ==== 
     psi = 0.072*[#   3]+0.017*[#   2]+0.017*[#   4]
    |psi|^2 = 0.106
==== e(  11) =    22.27836 eV ==== 
     psi = 0.001*[#   1]
    |psi|^2 = 0.002
==== e(  12) =    26.91725 eV ==== 
     psi = 0.003*[#   2]+0.003*[#   4]+0.001*[#   1]
    |psi|^2 = 0.007
==== e(  13) =    26.99443 eV ==== 
     psi = 0.005*[#   2]+0.005*[#   4]
    |psi|^2 = 0.009

 k =  -0.6250000000  0.3750000000  1.1250000000
==== e(   1) =    -5.82677 eV ==== 
     psi = 0.797*[#   6]+0.094*[#   8]+0.065*[#   5]+0.038*[#   7]+0.005*[#   2]
          
    |psi|^2 = 1.000
==== e(   2) =    -5.79156 eV ==== 
     psi = 0.414*[#   5]+0.386*[#   9]+0.110*[#   8]+0.063*[#   6]+0.022*[#   7]
          +0.002*[#   3]+0.001*[#   2]
    |psi|^2 = 1.000
==== e(   3) =    -5.70770 eV ==== 
     psi = 0.656*[#   8]+0.151*[#   9]+0.133*[#   7]+0.035*[#   5]+0.022*[#   6]
          +0.002*[#   2]
    |psi|^2 = 1.000
==== e(   4) =    -5.62878 eV ==== 
     psi = 0.498*[#   7]+0.206*[#   9]+0.167*[#   5]+0.107*[#   6]+0.017*[#   8]
          +0.003*[#   4]+0.001*[#   1]+0.001*[#   3]
    |psi|^2 = 1.000
==== e(   5) =    -5.56408 eV ==== 
     psi = 0.316*[#   5]+0.305*[#   7]+0.250*[#   9]+0.121*[#   8]+0.005*[#   6]
          +0.001*[#   4]
    |psi|^2 = 1.000
==== e(   6) =     2.79315 eV ==== 
     psi = 0.737*[#   1]+0.204*[#   4]+0.049*[#   3]+0.005*[#   9]+0.001*[#   2]
          
    |psi|^2 = 0.999
==== e(   7) =     9.41306 eV ==== 
     psi = 0.299*[#   4]+0.266*[#   3]+0.227*[#   2]+0.192*[#   1]+0.002*[#   6]
          +0.002*[#   5]
    |psi|^2 = 0.988
==== e(   8) =    12.77442 eV ==== 
     psi = 0.713*[#   2]+0.171*[#   4]+0.054*[#   1]+0.026*[#   3]+0.003*[#   6]
          +0.003*[#   7]
    |psi|^2 = 0.970
==== e(   9) =    15.10638 eV ==== 
     psi = 0.561*[#   3]+0.281*[#   4]+0.018*[#   2]+0.009*[#   1]
    |psi|^2 = 0.871
==== e(  10) =    20.22603 eV ==== 
     psi = 0.066*[#   3]+0.025*[#   4]+0.011*[#   2]
    |psi|^2 = 0.103
==== e(  11) =    22.48607 eV ==== 
     psi = 0.015*[#   3]+0.005*[#   2]+0.003*[#   4]
    |psi|^2 = 0.024
==== e(  12) =    23.93230 eV ==== 
     psi = 0.008*[#   4]+0.006*[#   2]+0.002*[#   1]
    |psi|^2 = 0.016
==== e(  13) =    26.78943 eV ==== 
     psi = 0.003*[#   2]+0.003*[#   3]
    |psi|^2 = 0.006

 k =  -0.7500000000  0.5000000000  1.0000000000
==== e(   1) =    -5.85116 eV ==== 
     psi = 0.950*[#   6]+0.046*[#   7]+0.004*[#   2]
    |psi|^2 = 1.000
==== e(   2) =    -5.77054 eV ==== 
     psi = 0.405*[#   5]+0.329*[#   8]+0.263*[#   9]+0.002*[#   3]
    |psi|^2 = 1.000
==== e(   3) =    -5.70921 eV ==== 
     psi = 0.580*[#   8]+0.383*[#   9]+0.035*[#   5]+0.002*[#   1]
    |psi|^2 = 1.000
==== e(   4) =    -5.66957 eV ==== 
     psi = 0.951*[#   7]+0.047*[#   6]+0.002*[#   2]
    |psi|^2 = 1.000
==== e(   5) =    -5.58946 eV ==== 
     psi = 0.558*[#   5]+0.350*[#   9]+0.090*[#   8]+0.001*[#   4]
    |psi|^2 = 1.000
==== e(   6) =     1.47856 eV ==== 
     psi = 0.649*[#   1]+0.286*[#   4]+0.060*[#   3]+0.003*[#   9]
    |psi|^2 = 0.999
==== e(   7) =    11.89308 eV ==== 
     psi = 0.364*[#   4]+0.321*[#   1]+0.290*[#   3]
    |psi|^2 = 0.976
==== e(   8) =    13.70091 eV ==== 
     psi = 0.931*[#   2]+0.003*[#   7]+0.003*[#   6]
    |psi|^2 = 0.936
==== e(   9) =    16.30457 eV ==== 
     psi = 0.554*[#   3]+0.312*[#   4]+0.022*[#   1]
    |psi|^2 = 0.889
==== e(  10) =    20.43672 eV ==== 
     psi = 0.058*[#   3]+0.030*[#   4]+0.001*[#   1]
    |psi|^2 = 0.089
==== e(  11) =    21.01950 eV ==== 
     psi = 0.043*[#   2]
    |psi|^2 = 0.043
==== e(  12) =    24.11048 eV ==== 
     psi = 0.019*[#   3]+0.003*[#   1]
    |psi|^2 = 0.022
==== e(  13) =    26.80368 eV ==== 
     psi = 0.007*[#   2]
    |psi|^2 = 0.007

 k =  -0.8750000000  0.6250000000  0.8750000000
==== e(   1) =    -5.84791 eV ==== 
     psi = 0.945*[#   6]+0.024*[#   7]+0.024*[#   9]+0.005*[#   8]+0.002*[#   5]
          
    |psi|^2 = 1.000
==== e(   2) =    -5.75354 eV ==== 
     psi = 0.329*[#   8]+0.273*[#   7]+0.273*[#   9]+0.110*[#   5]+0.013*[#   6]
          
    |psi|^2 = 1.000
==== e(   3) =    -5.74009 eV ==== 
     psi = 0.401*[#   7]+0.401*[#   9]+0.147*[#   5]+0.049*[#   8]
    |psi|^2 = 1.000
==== e(   4) =    -5.69805 eV ==== 
     psi = 0.415*[#   8]+0.202*[#   7]+0.202*[#   9]+0.138*[#   5]+0.041*[#   6]
          +0.001*[#   1]
    |psi|^2 = 1.000
==== e(   5) =    -5.62421 eV ==== 
     psi = 0.603*[#   5]+0.201*[#   8]+0.098*[#   7]+0.098*[#   9]
    |psi|^2 = 1.000
==== e(   6) =     0.60203 eV ==== 
     psi = 0.676*[#   1]+0.269*[#   4]+0.026*[#   2]+0.026*[#   3]
    |psi|^2 = 0.999
==== e(   7) =    13.34187 eV ==== 
     psi = 0.271*[#   4]+0.261*[#   1]+0.209*[#   2]+0.209*[#   3]
    |psi|^2 = 0.951
==== e(   8) =    16.36651 eV ==== 
     psi = 0.478*[#   2]+0.478*[#   3]
    |psi|^2 = 0.957
==== e(   9) =    16.77851 eV ==== 
     psi = 0.434*[#   4]+0.209*[#   2]+0.209*[#   3]+0.056*[#   1]
    |psi|^2 = 0.909
==== e(  10) =    20.24537 eV ==== 
     psi = 0.018*[#   2]+0.018*[#   3]+0.008*[#   4]
    |psi|^2 = 0.044
==== e(  11) =    21.45646 eV ==== 
     psi = 0.018*[#   2]+0.018*[#   3]+0.008*[#   4]
    |psi|^2 = 0.044
==== e(  12) =    24.79867 eV ==== 
     psi = 0.012*[#   2]+0.012*[#   3]+0.003*[#   1]
    |psi|^2 = 0.028
==== e(  13) =    25.92687 eV ==== 
     psi = 0.004*[#   2]+0.004*[#   3]+0.001*[#   1]
    |psi|^2 = 0.010

 k =  -1.0000000000  0.7500000000  0.7500000000
==== e(   1) =    -5.81889 eV ==== 
     psi = 0.498*[#   6]+0.498*[#   9]+0.003*[#   3]
    |psi|^2 = 1.000
==== e(   2) =    -5.77272 eV ==== 
     psi = 0.803*[#   7]+0.147*[#   8]+0.049*[#   5]
    |psi|^2 = 1.000
==== e(   3) =    -5.76588 eV ==== 
     psi = 0.500*[#   6]+0.500*[#   9]
    |psi|^2 = 1.000
==== e(   4) =    -5.69635 eV ==== 
     psi = 0.750*[#   5]+0.250*[#   8]
    |psi|^2 = 1.000
==== e(   5) =    -5.64166 eV ==== 
     psi = 0.603*[#   8]+0.201*[#   5]+0.195*[#   7]
    |psi|^2 = 1.000
==== e(   6) =     0.30366 eV ==== 
     psi = 0.710*[#   1]+0.144*[#   2]+0.144*[#   4]
    |psi|^2 = 0.999
==== e(   7) =    14.20633 eV ==== 
     psi = 0.337*[#   2]+0.337*[#   4]+0.275*[#   1]
    |psi|^2 = 0.950
==== e(   8) =    15.67983 eV ==== 
     psi = 0.882*[#   3]+0.002*[#   6]+0.002*[#   9]
    |psi|^2 = 0.886
==== e(   9) =    18.70380 eV ==== 
     psi = 0.498*[#   2]+0.498*[#   4]
    |psi|^2 = 0.996
==== e(  10) =    21.58124 eV ==== 
     psi = 0.087*[#   3]
    |psi|^2 = 0.087
==== e(  11) =    22.72955 eV ==== 
     psi = 0.004*[#   1]+0.004*[#   2]+0.004*[#   4]
    |psi|^2 = 0.012
==== e(  12) =    23.73192 eV ==== 
     psi = 0.011*[#   2]+0.011*[#   4]+0.008*[#   1]
    |psi|^2 = 0.031
==== e(  13) =    23.88478 eV ==== 

    |psi|^2 = 0.000

 k =   0.0000000000  0.0000000000  1.7500000000
==== e(   1) =    -5.83822 eV ==== 
     psi = 1.000*[#   9]
    |psi|^2 = 1.000
==== e(   2) =    -5.77154 eV ==== 
     psi = 0.989*[#   7]+0.009*[#   6]+0.001*[#   4]
    |psi|^2 = 1.000
==== e(   3) =    -5.77154 eV ==== 
     psi = 0.989*[#   6]+0.009*[#   7]+0.001*[#   3]
    |psi|^2 = 1.000
==== e(   4) =    -5.70093 eV ==== 
     psi = 1.000*[#   5]
    |psi|^2 = 1.000
==== e(   5) =    -5.65735 eV ==== 
     psi = 1.000*[#   8]
    |psi|^2 = 1.000
==== e(   6) =    -0.09626 eV ==== 
     psi = 0.787*[#   1]+0.212*[#   2]
    |psi|^2 = 0.999
==== e(   7) =    16.66372 eV ==== 
     psi = 0.770*[#   2]+0.209*[#   1]
    |psi|^2 = 0.978
==== e(   8) =    17.26709 eV ==== 
     psi = 0.924*[#   3]+0.023*[#   4]+0.001*[#   6]
    |psi|^2 = 0.948
==== e(   9) =    17.26709 eV ==== 
     psi = 0.924*[#   4]+0.023*[#   3]+0.001*[#   7]
    |psi|^2 = 0.948
==== e(  10) =    20.21019 eV ==== 

    |psi|^2 = 0.000
==== e(  11) =    22.50074 eV ==== 
     psi = 0.006*[#   2]+0.002*[#   1]
    |psi|^2 = 0.008
==== e(  12) =    25.41533 eV ==== 
     psi = 0.005*[#   2]
    |psi|^2 = 0.006
==== e(  13) =    25.66376 eV ==== 
     psi = 0.007*[#   4]
    |psi|^2 = 0.007

 k =  -0.1250000000  0.1250000000  1.6250000000
==== e(   1) =    -5.84791 eV ==== 
     psi = 0.945*[#   9]+0.024*[#   6]+0.024*[#   7]+0.006*[#   5]
    |psi|^2 = 1.000
==== e(   2) =    -5.75354 eV ==== 
     psi = 0.439*[#   5]+0.273*[#   6]+0.273*[#   7]+0.013*[#   9]
    |psi|^2 = 1.000
==== e(   3) =    -5.74009 eV ==== 
     psi = 0.401*[#   6]+0.401*[#   7]+0.196*[#   8]
    |psi|^2 = 1.000
==== e(   4) =    -5.69805 eV ==== 
     psi = 0.554*[#   5]+0.202*[#   6]+0.202*[#   7]+0.041*[#   9]+0.001*[#   1]
          
    |psi|^2 = 1.000
==== e(   5) =    -5.62421 eV ==== 
     psi = 0.804*[#   8]+0.098*[#   6]+0.098*[#   7]
    |psi|^2 = 1.000
==== e(   6) =     0.60203 eV ==== 
     psi = 0.676*[#   1]+0.269*[#   2]+0.026*[#   3]+0.026*[#   4]
    |psi|^2 = 0.999
==== e(   7) =    13.34187 eV ==== 
     psi = 0.271*[#   2]+0.261*[#   1]+0.209*[#   3]+0.209*[#   4]
    |psi|^2 = 0.951
==== e(   8) =    16.36651 eV ==== 
     psi = 0.478*[#   3]+0.478*[#   4]
    |psi|^2 = 0.957
==== e(   9) =    16.77851 eV ==== 
     psi = 0.434*[#   2]+0.209*[#   3]+0.209*[#   4]+0.056*[#   1]
    |psi|^2 = 0.909
==== e(  10) =    20.24537 eV ==== 
     psi = 0.018*[#   3]+0.018*[#   4]+0.008*[#   2]
    |psi|^2 = 0.044
==== e(  11) =    21.45646 eV ==== 
     psi = 0.018*[#   3]+0.018*[#   4]+0.008*[#   2]
    |psi|^2 = 0.044
==== e(  12) =    24.79867 eV ==== 
     psi = 0.012*[#   3]+0.012*[#   4]+0.003*[#   1]
    |psi|^2 = 0.028
==== e(  13) =    25.92687 eV ==== 
     psi = 0.004*[#   4]+0.004*[#   3]+0.001*[#   1]
    |psi|^2 = 0.010

 k =  -0.2500000000  0.2500000000  1.5000000000
==== e(   1) =    -5.84374 eV ==== 
     psi = 0.812*[#   9]+0.082*[#   5]+0.050*[#   6]+0.050*[#   7]+0.003*[#   1]
          
    |psi|^2 = 1.000
==== e(   2) =    -5.77744 eV ==== 
     psi = 0.542*[#   5]+0.227*[#   6]+0.227*[#   7]
    |psi|^2 = 1.000
==== e(   3) =    -5.74865 eV ==== 
     psi = 0.481*[#   8]+0.259*[#   6]+0.259*[#   7]
    |psi|^2 = 1.000
==== e(   4) =    -5.64006 eV ==== 
     psi = 0.374*[#   5]+0.219*[#   6]+0.219*[#   7]+0.184*[#   9]+0.001*[#   1]
          
    |psi|^2 = 1.000
==== e(   5) =    -5.56337 eV ==== 
     psi = 0.519*[#   8]+0.240*[#   6]+0.240*[#   7]
    |psi|^2 = 1.000
==== e(   6) =     1.84305 eV ==== 
     psi = 0.689*[#   1]+0.226*[#   2]+0.039*[#   3]+0.039*[#   4]+0.002*[#   6]
          +0.002*[#   7]
    |psi|^2 = 0.999
==== e(   7) =     9.93279 eV ==== 
     psi = 0.253*[#   3]+0.253*[#   4]+0.250*[#   1]+0.214*[#   2]+0.002*[#   9]
          
    |psi|^2 = 0.974
==== e(   8) =    15.77200 eV ==== 
     psi = 0.529*[#   2]+0.175*[#   3]+0.175*[#   4]+0.051*[#   1]
    |psi|^2 = 0.931
==== e(   9) =    15.91998 eV ==== 
     psi = 0.481*[#   3]+0.481*[#   4]
    |psi|^2 = 0.964
==== e(  10) =    19.53843 eV ==== 
     psi = 0.001*[#   3]+0.001*[#   4]
    |psi|^2 = 0.003
==== e(  11) =    22.93930 eV ==== 
     psi = 0.028*[#   3]+0.028*[#   4]+0.018*[#   2]
    |psi|^2 = 0.075
==== e(  12) =    24.64939 eV ==== 
     psi = 0.011*[#   3]+0.011*[#   4]
    |psi|^2 = 0.021
==== e(  13) =    24.65243 eV ==== 
     psi = 0.004*[#   2]+0.002*[#   1]
    |psi|^2 = 0.007

 k =  -0.3750000000  0.3750000000  1.3750000000
==== e(   1) =    -5.83670 eV ==== 
     psi = 0.672*[#   9]+0.205*[#   5]+0.058*[#   6]+0.058*[#   7]+0.005*[#   1]
          +0.001*[#   2]
    |psi|^2 = 1.000
==== e(   2) =    -5.79292 eV ==== 
     psi = 0.397*[#   5]+0.298*[#   6]+0.298*[#   7]+0.003*[#   1]+0.002*[#   2]
          +0.001*[#   3]+0.001*[#   4]
    |psi|^2 = 1.000
==== e(   3) =    -5.76526 eV ==== 
     psi = 0.584*[#   8]+0.208*[#   6]+0.208*[#   7]
    |psi|^2 = 1.000
==== e(   4) =    -5.58627 eV ==== 
     psi = 0.395*[#   5]+0.322*[#   9]+0.140*[#   6]+0.140*[#   7]+0.001*[#   3]
          +0.001*[#   4]
    |psi|^2 = 1.000
==== e(   5) =    -5.53854 eV ==== 
     psi = 0.415*[#   8]+0.292*[#   6]+0.292*[#   7]
    |psi|^2 = 1.000
==== e(   6) =     3.17714 eV ==== 
     psi = 0.899*[#   1]+0.085*[#   2]+0.004*[#   6]+0.004*[#   7]+0.003*[#   9]
          +0.002*[#   3]+0.002*[#   4]
    |psi|^2 = 0.997
==== e(   7) =     7.57915 eV ==== 
     psi = 0.325*[#   3]+0.325*[#   4]+0.299*[#   2]+0.045*[#   1]+0.002*[#   9]
          +0.001*[#   5]
    |psi|^2 = 0.997
==== e(   8) =    14.87865 eV ==== 
     psi = 0.583*[#   2]+0.161*[#   3]+0.161*[#   4]+0.045*[#   1]+0.001*[#   6]
          +0.001*[#   7]
    |psi|^2 = 0.953
==== e(   9) =    16.04571 eV ==== 
     psi = 0.483*[#   3]+0.483*[#   4]
    |psi|^2 = 0.966
==== e(  10) =    19.40787 eV ==== 
     psi = 0.004*[#   2]+0.001*[#   1]
    |psi|^2 = 0.006
==== e(  11) =    22.69549 eV ==== 
     psi = 0.011*[#   2]+0.006*[#   3]+0.006*[#   4]
    |psi|^2 = 0.023
==== e(  12) =    23.70226 eV ==== 
     psi = 0.009*[#   3]+0.009*[#   4]
    |psi|^2 = 0.019
==== e(  13) =    24.92524 eV ==== 
     psi = 0.003*[#   2]+0.002*[#   3]+0.002*[#   4]
    |psi|^2 = 0.006

 k =  -0.5000000000  0.5000000000  1.2500000000
==== e(   1) =    -5.81985 eV ==== 
     psi = 0.547*[#   9]+0.158*[#   5]+0.143*[#   6]+0.143*[#   7]+0.006*[#   1]
          +0.002*[#   2]
    |psi|^2 = 1.000
==== e(   2) =    -5.79803 eV ==== 
     psi = 0.384*[#   5]+0.282*[#   6]+0.282*[#   7]+0.047*[#   9]+0.003*[#   2]
          +0.001*[#   1]
    |psi|^2 = 1.000
==== e(   3) =    -5.76676 eV ==== 
     psi = 0.601*[#   8]+0.199*[#   6]+0.199*[#   7]
    |psi|^2 = 1.000
==== e(   4) =    -5.57878 eV ==== 
     psi = 0.398*[#   8]+0.301*[#   6]+0.301*[#   7]
    |psi|^2 = 1.000
==== e(   5) =    -5.56895 eV ==== 
     psi = 0.456*[#   5]+0.401*[#   9]+0.070*[#   6]+0.070*[#   7]+0.001*[#   3]
          +0.001*[#   4]
    |psi|^2 = 1.000
==== e(   6) =     2.79818 eV ==== 
     psi = 0.814*[#   1]+0.086*[#   3]+0.086*[#   4]+0.005*[#   9]+0.002*[#   2]
          +0.002*[#   6]+0.002*[#   7]
    |psi|^2 = 0.998
==== e(   7) =     8.17268 eV ==== 
     psi = 0.324*[#   2]+0.266*[#   3]+0.266*[#   4]+0.130*[#   1]+0.001*[#   5]
          +0.001*[#   6]+0.001*[#   7]
    |psi|^2 = 0.991
==== e(   8) =    14.43505 eV ==== 
     psi = 0.628*[#   2]+0.139*[#   3]+0.139*[#   4]+0.043*[#   1]+0.002*[#   6]
          +0.002*[#   7]
    |psi|^2 = 0.953
==== e(   9) =    16.75119 eV ==== 
     psi = 0.483*[#   3]+0.483*[#   4]
    |psi|^2 = 0.967
==== e(  10) =    19.91108 eV ==== 
     psi = 0.006*[#   2]+0.002*[#   1]+0.002*[#   3]+0.002*[#   4]
    |psi|^2 = 0.012
==== e(  11) =    22.22153 eV ==== 
     psi = 0.019*[#   2]+0.001*[#   1]
    |psi|^2 = 0.021
==== e(  12) =    23.23537 eV ==== 
     psi = 0.008*[#   3]+0.008*[#   4]
    |psi|^2 = 0.015
==== e(  13) =    25.61143 eV ==== 
     psi = 0.005*[#   2]
    |psi|^2 = 0.006

 k =  -0.6250000000  0.6250000000  1.1250000000
==== e(   1) =    -5.81318 eV ==== 
     psi = 0.451*[#   6]+0.451*[#   7]+0.090*[#   9]+0.005*[#   2]+0.002*[#   1]
          
    |psi|^2 = 1.000
==== e(   2) =    -5.78360 eV ==== 
     psi = 0.522*[#   9]+0.423*[#   5]+0.027*[#   6]+0.027*[#   7]
    |psi|^2 = 1.000
==== e(   3) =    -5.75159 eV ==== 
     psi = 0.462*[#   8]+0.269*[#   6]+0.269*[#   7]
    |psi|^2 = 1.000
==== e(   4) =    -5.65999 eV ==== 
     psi = 0.537*[#   8]+0.231*[#   6]+0.231*[#   7]
    |psi|^2 = 1.000
==== e(   5) =    -5.59581 eV ==== 
     psi = 0.576*[#   5]+0.384*[#   9]+0.018*[#   6]+0.018*[#   7]+0.001*[#   1]
          
    |psi|^2 = 1.000
==== e(   6) =     1.37724 eV ==== 
     psi = 0.669*[#   1]+0.156*[#   3]+0.156*[#   4]+0.012*[#   2]+0.003*[#   9]
          
    |psi|^2 = 0.999
==== e(   7) =    11.00440 eV ==== 
     psi = 0.280*[#   1]+0.235*[#   3]+0.235*[#   4]+0.209*[#   2]
    |psi|^2 = 0.962
==== e(   8) =    14.58553 eV ==== 
     psi = 0.702*[#   2]+0.096*[#   3]+0.096*[#   4]+0.036*[#   1]+0.002*[#   6]
          +0.002*[#   7]
    |psi|^2 = 0.935
==== e(   9) =    17.85514 eV ==== 
     psi = 0.487*[#   3]+0.487*[#   4]
    |psi|^2 = 0.975
==== e(  10) =    21.00662 eV ==== 
     psi = 0.008*[#   2]+0.003*[#   3]+0.003*[#   4]+0.003*[#   1]
    |psi|^2 = 0.017
==== e(  11) =    22.03379 eV ==== 
     psi = 0.041*[#   2]+0.004*[#   1]
    |psi|^2 = 0.047
==== e(  12) =    23.27389 eV ==== 
     psi = 0.004*[#   3]+0.004*[#   4]
    |psi|^2 = 0.008
==== e(  13) =    25.31642 eV ==== 
     psi = 0.005*[#   2]+0.005*[#   3]+0.005*[#   4]+0.003*[#   1]
    |psi|^2 = 0.018

 k =  -0.7500000000  0.7500000000  1.0000000000
==== e(   1) =    -5.81889 eV ==== 
     psi = 0.498*[#   6]+0.498*[#   7]+0.003*[#   2]
    |psi|^2 = 1.000
==== e(   2) =    -5.77272 eV ==== 
     psi = 0.803*[#   9]+0.196*[#   5]
    |psi|^2 = 1.000
==== e(   3) =    -5.76588 eV ==== 
     psi = 0.500*[#   6]+0.500*[#   7]
    |psi|^2 = 1.000
==== e(   4) =    -5.69635 eV ==== 
     psi = 1.000*[#   8]
    |psi|^2 = 1.000
==== e(   5) =    -5.64166 eV ==== 
     psi = 0.804*[#   5]+0.195*[#   9]
    |psi|^2 = 1.000
==== e(   6) =     0.30366 eV ==== 
     psi = 0.710*[#   1]+0.144*[#   3]+0.144*[#   4]
    |psi|^2 = 0.999
==== e(   7) =    14.20633 eV ==== 
     psi = 0.337*[#   3]+0.337*[#   4]+0.275*[#   1]
    |psi|^2 = 0.950
==== e(   8) =    15.67983 eV ==== 
     psi = 0.882*[#   2]+0.002*[#   6]+0.002*[#   7]
    |psi|^2 = 0.886
==== e(   9) =    18.70380 eV ==== 
     psi = 0.498*[#   3]+0.498*[#   4]
    |psi|^2 = 0.996
==== e(  10) =    21.58124 eV ==== 
     psi = 0.087*[#   2]
    |psi|^2 = 0.087
==== e(  11) =    22.72955 eV ==== 
     psi = 0.004*[#   1]+0.004*[#   3]+0.004*[#   4]
    |psi|^2 = 0.012
==== e(  12) =    23.73193 eV ==== 
     psi = 0.011*[#   3]+0.011*[#   4]+0.008*[#   1]
    |psi|^2 = 0.031
==== e(  13) =    23.88481 eV ==== 

    |psi|^2 = 0.000

 k =  -0.8750000000  0.8750000000  0.8750000000
==== e(   1) =    -5.81507 eV ==== 
     psi = 0.333*[#   6]+0.333*[#   7]+0.333*[#   9]
    |psi|^2 = 1.000
==== e(   2) =    -5.79435 eV ==== 
     psi = 0.649*[#   9]+0.163*[#   6]+0.162*[#   7]+0.025*[#   5]
    |psi|^2 = 1.000
==== e(   3) =    -5.79435 eV ==== 
     psi = 0.487*[#   7]+0.487*[#   6]+0.025*[#   8]
    |psi|^2 = 1.000
==== e(   4) =    -5.67464 eV ==== 
     psi = 0.975*[#   5]+0.017*[#   9]+0.004*[#   6]+0.004*[#   7]
    |psi|^2 = 1.000
==== e(   5) =    -5.67464 eV ==== 
     psi = 0.975*[#   8]+0.013*[#   6]+0.013*[#   7]
    |psi|^2 = 1.000
==== e(   6) =    -0.19622 eV ==== 
     psi = 0.826*[#   1]+0.058*[#   2]+0.058*[#   3]+0.058*[#   4]
    |psi|^2 = 0.999
==== e(   7) =    15.87672 eV ==== 
     psi = 0.255*[#   2]+0.255*[#   3]+0.255*[#   4]+0.161*[#   1]
    |psi|^2 = 0.926
==== e(   8) =    18.32226 eV ==== 
     psi = 0.640*[#   2]+0.160*[#   3]+0.160*[#   4]
    |psi|^2 = 0.961
==== e(   9) =    18.32226 eV ==== 
     psi = 0.480*[#   3]+0.480*[#   4]
    |psi|^2 = 0.961
==== e(  10) =    20.79913 eV ==== 
     psi = 0.010*[#   2]+0.010*[#   3]+0.010*[#   4]+0.006*[#   1]
    |psi|^2 = 0.035
==== e(  11) =    23.80599 eV ==== 

    |psi|^2 = 0.002
==== e(  12) =    24.38893 eV ==== 
     psi = 0.017*[#   2]+0.004*[#   3]+0.004*[#   4]
    |psi|^2 = 0.026
==== e(  13) =    24.38893 eV ==== 
     psi = 0.013*[#   4]+0.013*[#   3]
    |psi|^2 = 0.026

Lowdin Charges: 

     Atom #   1: total charge =  13.9730, s =  1.8270, 
     Atom #   1: total charge =  13.9730, p =  2.1591, pz=  0.7197, px=  0.7197, py=  0.7197, 
     Atom #   1: total charge =  13.9730, d =  9.9869, dz2=  1.9979, dxz=  1.9971, dyz=  1.9971, dx2-y2=  1.9979, dxy=  1.9971, 
     Spilling Parameter:   0.0019

     PROJWFC      :      1.71s CPU      1.99s WALL


   This run was terminated on:  11:40:16  15Jun2021            

=------------------------------------------------------------------------------=
   JOB DONE.
=------------------------------------------------------------------------------=
