
     Program Q2R v.6.7MaX starts on 15Jun2021 at 21:44:49 

     This program is part of the open-source Quantum ESPRESSO suite
     for quantum simulation of materials; please cite
         "P. Giannozzi et al., J. Phys.:Condens. Matter 21 395502 (2009);
         "P. Giannozzi et al., J. Phys.:Condens. Matter 29 465901 (2017);
          URL http://www.quantum-espresso.org", 
     in publications or presentations arising from this work. More details at
     http://www.quantum-espresso.org/quote

     Parallel version (MPI & OpenMP), running on       1 processor cores
     Number of MPI processes:                 1
     Threads/MPI process:                     1

     MPI processes distributed on     1 nodes

     reading grid info from file sic.dyn0    
  reading force constants from file sic.dyn1
 macroscopic fields = T
   7.21425   0.00000   0.00000
   0.00000   7.21425  -0.00000
   0.00000  -0.00000   7.21425
  na=            1
   2.67033   0.00000  -0.00000
   0.00000   2.67033   0.00000
  -0.00000  -0.00000   2.67033
  na=            2
  -2.69640  -0.00000   0.00000
  -0.00000  -2.69640   0.00000
   0.00000   0.00000  -2.69640
  nqs=            1
 q=   0.00000000  0.00000000  0.00000000
  reading force constants from file sic.dyn2
  nqs=            8
 q=  -0.33333333  0.33333333 -0.33333333
 q=   0.33333333 -0.33333333  0.33333333
 q=   0.33333333  0.33333333  0.33333333
 q=  -0.33333333 -0.33333333 -0.33333333
 q=   0.33333333 -0.33333333 -0.33333333
 q=  -0.33333333  0.33333333  0.33333333
 q=  -0.33333333 -0.33333333  0.33333333
 q=   0.33333333  0.33333333 -0.33333333
  reading force constants from file sic.dyn3
  nqs=            6
 q=   0.00000000  0.66666667  0.00000000
 q=   0.00000000  0.00000000 -0.66666667
 q=  -0.66666667  0.00000000  0.00000000
 q=   0.66666667  0.00000000  0.00000000
 q=   0.00000000 -0.66666667  0.00000000
 q=   0.00000000  0.00000000  0.66666667
  reading force constants from file sic.dyn4
  nqs=           12
 q=   0.66666667  0.00000000  0.66666667
 q=  -0.66666667  0.00000000 -0.66666667
 q=   0.66666667 -0.66666667  0.00000000
 q=   0.00000000 -0.66666667  0.66666667
 q=   0.00000000 -0.66666667 -0.66666667
 q=  -0.66666667  0.00000000  0.66666667
 q=   0.66666667  0.66666667  0.00000000
 q=  -0.66666667 -0.66666667  0.00000000
 q=  -0.66666667  0.66666667  0.00000000
 q=   0.66666667  0.00000000 -0.66666667
 q=   0.00000000  0.66666667  0.66666667
 q=   0.00000000  0.66666667 -0.66666667

      q-space grid ok, #points =   27

      fft-check success (sum of imaginary terms < 10^-12)

     Q2R          :      0.01s CPU      0.01s WALL


   This run was terminated on:  21:44:49  15Jun2021            

=------------------------------------------------------------------------------=
   JOB DONE.
=------------------------------------------------------------------------------=
