
     Program PHONON v.6.7MaX starts on 15Jun2021 at 21:40:37 

     This program is part of the open-source Quantum ESPRESSO suite
     for quantum simulation of materials; please cite
         "P. Giannozzi et al., J. Phys.:Condens. Matter 21 395502 (2009);
         "P. Giannozzi et al., J. Phys.:Condens. Matter 29 465901 (2017);
          URL http://www.quantum-espresso.org", 
     in publications or presentations arising from this work. More details at
     http://www.quantum-espresso.org/quote

     Parallel version (MPI & OpenMP), running on       4 processor cores
     Number of MPI processes:                 4
     Threads/MPI process:                     1

     MPI processes distributed on     1 nodes
     K-points division:     npool     =       4
     Reading input from sic.ph.in

     Reading xml data from directory:

     ./sic.save/
     file C.UPF: wavefunction(s)  3d renormalized

     IMPORTANT: XC functional enforced from input :
     Exchange-correlation= PZ
                           (   1   1   0   0   0   0   0)
     Any further DFT definition will be discarded
     Please, verify this is what you really want


     G-vector sticks info
     --------------------
     sticks:   dense  smooth     PW     G-vecs:    dense   smooth      PW
     Sum         283     283     91                 3119     3119     609

     Reading collected, re-writing distributed wavefunctions


     Dynamical matrices for ( 3, 3, 3)  uniform grid of q-points
     (   4 q-points):
       N         xq(1)         xq(2)         xq(3) 
       1   0.000000000   0.000000000   0.000000000
       2  -0.333333333   0.333333333  -0.333333333
       3   0.000000000   0.666666667   0.000000000
       4   0.666666667  -0.000000000   0.666666667

     Saving dvscf to file. Distribute only q points, not irreducible represetations.

     Calculation of q =    0.0000000   0.0000000   0.0000000

     --                                                                         

     bravais-lattice index     =            2
     lattice parameter (alat)  =       8.2370  a.u.
     unit-cell volume          =     139.7163 (a.u.)^3
     number of atoms/cell      =            2
     number of atomic types    =            2
     kinetic-energy cut-off    =      30.0000  Ry
     charge density cut-off    =     120.0000  Ry
     convergence threshold     =      1.0E-12
     beta                      =       0.7000
     number of iterations used =            4
     Exchange-correlation= PZ
                           (   1   1   0   0   0   0   0)


     celldm(1)=    8.23700  celldm(2)=    0.00000  celldm(3)=    0.00000
     celldm(4)=    0.00000  celldm(5)=    0.00000  celldm(6)=    0.00000

     crystal axes: (cart. coord. in units of alat)
               a(1) = ( -0.5000  0.0000  0.5000 )  
               a(2) = (  0.0000  0.5000  0.5000 )  
               a(3) = ( -0.5000  0.5000  0.0000 )  

     reciprocal axes: (cart. coord. in units 2 pi/alat)
               b(1) = ( -1.0000 -1.0000  1.0000 )  
               b(2) = (  1.0000  1.0000  1.0000 )  
               b(3) = ( -1.0000  1.0000 -1.0000 )  


     Atoms inside the unit cell: 

     Cartesian axes

     site n.  atom      mass           positions (alat units)
        1     Si  28.0855   tau(    1) = (    0.00000    0.00000    0.00000  )
        2     C   12.0108   tau(    2) = (    0.25000    0.25000    0.25000  )

     Computing dynamical matrix for 
                    q = (   0.0000000   0.0000000   0.0000000 )

     25 Sym.Ops. (with q -> -q+G )


     G cutoff =  206.2337  (   3119 G-vectors)     FFT grid: ( 24, 24, 24)
     number of k points=    29

     PseudoPot. # 1 for Si read from file:
     ../Si.pz-vbc.UPF
     MD5 check sum: 6dfa03ddd5817404712e03e4d12deb78
     Pseudo is Norm-conserving, Zval =  4.0
     Generated by new atomic code, or converted to UPF format
     Using radial grid of  431 points,  2 beta functions with: 
                l(1) =   0
                l(2) =   1

     PseudoPot. # 2 for C  read from file:
     ../C.UPF
     MD5 check sum: 4781e8ce5ee01a432381f51d0ea25c53
     Pseudo is Norm-conserving, Zval =  4.0
     Generated by new atomic code, or converted to UPF format
     Using radial grid of  461 points,  2 beta functions with: 
                l(1) =   0
                l(2) =   1

     Mode symmetry, T_d (-43m)  point group:


     Electric field:
     Dielectric constant
     Born effective charges in two ways 


     Atomic displacements:
     There are    2 irreducible representations

     Representation     1      3 modes -  To be done

     Representation     2      3 modes -  To be done



     Alpha used in Ewald sum =   1.3000
     PHONON       :      0.14s CPU      0.17s WALL


     Electric Fields Calculation

      iter #   1 total cpu time :     0.6 secs   av.it.:   6.0
      thresh= 1.000E-02 alpha_mix =  0.700 |ddv_scf|^2 =  1.354E-07

      iter #   2 total cpu time :     0.9 secs   av.it.:   9.9
      thresh= 3.680E-05 alpha_mix =  0.700 |ddv_scf|^2 =  1.395E-09

      iter #   3 total cpu time :     1.1 secs   av.it.:  10.2
      thresh= 3.735E-06 alpha_mix =  0.700 |ddv_scf|^2 =  7.581E-11

      iter #   4 total cpu time :     1.3 secs   av.it.:  10.0
      thresh= 8.707E-07 alpha_mix =  0.700 |ddv_scf|^2 =  5.439E-13

     End of electric fields calculation

          Dielectric constant in cartesian axis 

          (       7.214254578       0.000000000       0.000000000 )
          (       0.000000000       7.214254578      -0.000000000 )
          (       0.000000000      -0.000000000       7.214254578 )

          Effective charges (d Force / dE) in cartesian axis

           atom      1   Si 
      Ex  (        2.67033        0.00000       -0.00000 )
      Ey  (        0.00000        2.67033        0.00000 )
      Ez  (       -0.00000       -0.00000        2.67033 )
           atom      2   C  
      Ex  (       -2.69640       -0.00000        0.00000 )
      Ey  (       -0.00000       -2.69640        0.00000 )
      Ez  (        0.00000        0.00000       -2.69640 )


     Representation #   1 modes #   1   2   3

     Self-consistent Calculation

      iter #   1 total cpu time :     1.6 secs   av.it.:   6.1
      thresh= 1.000E-02 alpha_mix =  0.700 |ddv_scf|^2 =  7.889E-07

      iter #   2 total cpu time :     1.8 secs   av.it.:  10.1
      thresh= 8.882E-05 alpha_mix =  0.700 |ddv_scf|^2 =  9.663E-09

      iter #   3 total cpu time :     2.1 secs   av.it.:  10.0
      thresh= 9.830E-06 alpha_mix =  0.700 |ddv_scf|^2 =  2.890E-11

      iter #   4 total cpu time :     2.3 secs   av.it.:   9.6
      thresh= 5.376E-07 alpha_mix =  0.700 |ddv_scf|^2 =  3.631E-13

     End of self-consistent calculation

     Convergence has been achieved 


     Representation #   2 modes #   4   5   6

     Self-consistent Calculation

      iter #   1 total cpu time :     2.5 secs   av.it.:   5.0
      thresh= 1.000E-02 alpha_mix =  0.700 |ddv_scf|^2 =  3.590E-08

      iter #   2 total cpu time :     2.8 secs   av.it.:   9.9
      thresh= 1.895E-05 alpha_mix =  0.700 |ddv_scf|^2 =  4.027E-10

      iter #   3 total cpu time :     3.1 secs   av.it.:   9.7
      thresh= 2.007E-06 alpha_mix =  0.700 |ddv_scf|^2 =  3.027E-11

      iter #   4 total cpu time :     3.3 secs   av.it.:   9.4
      thresh= 5.501E-07 alpha_mix =  0.700 |ddv_scf|^2 =  6.842E-13

     End of self-consistent calculation

     Convergence has been achieved 

     Number of q in the star =    1
     List of q in the star:
          1   0.000000000   0.000000000   0.000000000

          Dielectric constant in cartesian axis 

          (       7.214254578       0.000000000       0.000000000 )
          (       0.000000000       7.214254578      -0.000000000 )
          (       0.000000000      -0.000000000       7.214254578 )

          Effective charges (d Force / dE) in cartesian axis

           atom      1   Si 
      Ex  (        2.67033        0.00000       -0.00000 )
      Ey  (        0.00000        2.67033        0.00000 )
      Ez  (       -0.00000       -0.00000        2.67033 )
           atom      2   C  
      Ex  (       -2.69640       -0.00000        0.00000 )
      Ey  (       -0.00000       -2.69640        0.00000 )
      Ez  (        0.00000        0.00000       -2.69640 )

          Effective charges (d P / du) in cartesian axis 

           atom      1   Si 
      Px  (        2.66974        0.00000       -0.00000 )
      Py  (        0.00000        2.66974       -0.00000 )
      Pz  (       -0.00000       -0.00000        2.66974 )
           atom      2   C  
      Px  (       -2.69676       -0.00000        0.00000 )
      Py  (       -0.00000       -2.69676        0.00000 )
      Pz  (        0.00000        0.00000       -2.69676 )

     Diagonalizing the dynamical matrix

     q = (    0.000000000   0.000000000   0.000000000 ) 

 **************************************************************************
     freq (    1) =       0.399650 [THz] =      13.330885 [cm-1]
     freq (    2) =       0.399650 [THz] =      13.330885 [cm-1]
     freq (    3) =       0.399650 [THz] =      13.330885 [cm-1]
     freq (    4) =      23.201235 [THz] =     773.909900 [cm-1]
     freq (    5) =      23.201235 [THz] =     773.909900 [cm-1]
     freq (    6) =      23.201235 [THz] =     773.909900 [cm-1]
 **************************************************************************

     Mode symmetry, T_d (-43m)  point group:

     freq (   1-   3) =         13.3  [cm-1]   --> T_2  G_15 P_4   I+R
     freq (   4-   6) =        773.9  [cm-1]   --> T_2  G_15 P_4   I+R

     Calculation of q =   -0.3333333   0.3333333  -0.3333333

     Subspace diagonalization in iterative solution of the eigenvalue problem:
     a serial algorithm will be used


     G-vector sticks info
     --------------------
     sticks:   dense  smooth     PW     G-vecs:    dense   smooth      PW
     Sum         283     283    109                 3119     3119     749


     Title: 
     --                                                                         


     bravais-lattice index     =            2
     lattice parameter (alat)  =       8.2370  a.u.
     unit-cell volume          =     139.7163 (a.u.)^3
     number of atoms/cell      =            2
     number of atomic types    =            2
     number of electrons       =         8.00
     number of Kohn-Sham states=            4
     kinetic-energy cutoff     =      30.0000  Ry
     charge density cutoff     =     120.0000  Ry
     Exchange-correlation= PZ
                           (   1   1   0   0   0   0   0)

     celldm(1)=   8.237000  celldm(2)=   0.000000  celldm(3)=   0.000000
     celldm(4)=   0.000000  celldm(5)=   0.000000  celldm(6)=   0.000000

     crystal axes: (cart. coord. in units of alat)
               a(1) = (  -0.500000   0.000000   0.500000 )  
               a(2) = (   0.000000   0.500000   0.500000 )  
               a(3) = (  -0.500000   0.500000   0.000000 )  

     reciprocal axes: (cart. coord. in units 2 pi/alat)
               b(1) = ( -1.000000 -1.000000  1.000000 )  
               b(2) = (  1.000000  1.000000  1.000000 )  
               b(3) = ( -1.000000  1.000000 -1.000000 )  


     PseudoPot. # 1 for Si read from file:
     ../Si.pz-vbc.UPF
     MD5 check sum: 6dfa03ddd5817404712e03e4d12deb78
     Pseudo is Norm-conserving, Zval =  4.0
     Generated by new atomic code, or converted to UPF format
     Using radial grid of  431 points,  2 beta functions with: 
                l(1) =   0
                l(2) =   1

     PseudoPot. # 2 for C  read from file:
     ../C.UPF
     MD5 check sum: 4781e8ce5ee01a432381f51d0ea25c53
     Pseudo is Norm-conserving, Zval =  4.0
     Generated by new atomic code, or converted to UPF format
     Using radial grid of  461 points,  2 beta functions with: 
                l(1) =   0
                l(2) =   1

     atomic species   valence    mass     pseudopotential
        Si             4.00    28.08550     Si( 1.00)
        C              4.00    12.01078     C ( 1.00)

     24 Sym. Ops. (no inversion) found



   Cartesian axes

     site n.     atom                  positions (alat units)
         1           Si  tau(   1) = (   0.0000000   0.0000000   0.0000000  )
         2           C   tau(   2) = (   0.2500000   0.2500000   0.2500000  )

     number of k points=   240

     Number of k-points >= 100: set verbosity='high' to print them.

     Dense  grid:     3119 G-vectors     FFT dimensions: (  24,  24,  24)

     Estimated max dynamical RAM per process >       1.86 MB

     Estimated total dynamical RAM >       7.43 MB

     The potential is recalculated from file :
     ./_ph0/sic.q_2/sic.save/charge-density

     Starting wfcs are   13 atomic wfcs

     Band Structure Calculation
     Davidson diagonalization with overlap

     ethr =  1.25E-10,  avg # of iterations = 10.6

     total cpu time spent up to now is        0.7 secs

     End of band structure calculation

     Number of k-points >= 100: set verbosity='high' to print the bands.

     highest occupied level (ev):     9.3594

     Writing output data file ./_ph0/sic.q_2/sic.save/

     --                                                                         

     bravais-lattice index     =            2
     lattice parameter (alat)  =       8.2370  a.u.
     unit-cell volume          =     139.7163 (a.u.)^3
     number of atoms/cell      =            2
     number of atomic types    =            2
     kinetic-energy cut-off    =      30.0000  Ry
     charge density cut-off    =     120.0000  Ry
     convergence threshold     =      1.0E-12
     beta                      =       0.7000
     number of iterations used =            4
     Exchange-correlation= PZ
                           (   1   1   0   0   0   0   0)


     celldm(1)=    8.23700  celldm(2)=    0.00000  celldm(3)=    0.00000
     celldm(4)=    0.00000  celldm(5)=    0.00000  celldm(6)=    0.00000

     crystal axes: (cart. coord. in units of alat)
               a(1) = ( -0.5000  0.0000  0.5000 )  
               a(2) = (  0.0000  0.5000  0.5000 )  
               a(3) = ( -0.5000  0.5000  0.0000 )  

     reciprocal axes: (cart. coord. in units 2 pi/alat)
               b(1) = ( -1.0000 -1.0000  1.0000 )  
               b(2) = (  1.0000  1.0000  1.0000 )  
               b(3) = ( -1.0000  1.0000 -1.0000 )  


     Atoms inside the unit cell: 

     Cartesian axes

     site n.  atom      mass           positions (alat units)
        1     Si  28.0855   tau(    1) = (    0.00000    0.00000    0.00000  )
        2     C   12.0108   tau(    2) = (    0.25000    0.25000    0.25000  )

     Computing dynamical matrix for 
                    q = (  -0.3333333   0.3333333  -0.3333333 )

      6 Sym.Ops. (no q -> -q+G )


     G cutoff =  206.2337  (   3119 G-vectors)     FFT grid: ( 24, 24, 24)
     number of k points=   240

     PseudoPot. # 1 for Si read from file:
     ../Si.pz-vbc.UPF
     MD5 check sum: 6dfa03ddd5817404712e03e4d12deb78
     Pseudo is Norm-conserving, Zval =  4.0
     Generated by new atomic code, or converted to UPF format
     Using radial grid of  431 points,  2 beta functions with: 
                l(1) =   0
                l(2) =   1

     PseudoPot. # 2 for C  read from file:
     ../C.UPF
     MD5 check sum: 4781e8ce5ee01a432381f51d0ea25c53
     Pseudo is Norm-conserving, Zval =  4.0
     Generated by new atomic code, or converted to UPF format
     Using radial grid of  461 points,  2 beta functions with: 
                l(1) =   0
                l(2) =   1

     Mode symmetry, C_3v (3m)   point group:


     Atomic displacements:
     There are    4 irreducible representations

     Representation     1      1 modes -  To be done

     Representation     2      1 modes -  To be done

     Representation     3      2 modes -  To be done

     Representation     4      2 modes -  To be done



     Alpha used in Ewald sum =   1.3000
     PHONON       :      3.88s CPU      4.07s WALL



     Representation #   1 mode #   1

     Self-consistent Calculation

      iter #   1 total cpu time :     4.3 secs   av.it.:   6.1
      thresh= 1.000E-02 alpha_mix =  0.700 |ddv_scf|^2 =  4.007E-04

      iter #   2 total cpu time :     4.6 secs   av.it.:   8.1
      thresh= 2.002E-03 alpha_mix =  0.700 |ddv_scf|^2 =  1.427E-03

      iter #   3 total cpu time :     4.8 secs   av.it.:   7.0
      thresh= 3.778E-03 alpha_mix =  0.700 |ddv_scf|^2 =  3.193E-07

      iter #   4 total cpu time :     5.1 secs   av.it.:   8.4
      thresh= 5.650E-05 alpha_mix =  0.700 |ddv_scf|^2 =  3.017E-08

      iter #   5 total cpu time :     5.4 secs   av.it.:   8.3
      thresh= 1.737E-05 alpha_mix =  0.700 |ddv_scf|^2 =  1.148E-10

      iter #   6 total cpu time :     5.6 secs   av.it.:   8.5
      thresh= 1.071E-06 alpha_mix =  0.700 |ddv_scf|^2 =  2.399E-11

      iter #   7 total cpu time :     5.9 secs   av.it.:   8.3
      thresh= 4.898E-07 alpha_mix =  0.700 |ddv_scf|^2 =  6.806E-11

      iter #   8 total cpu time :     6.2 secs   av.it.:   7.2
      thresh= 8.250E-07 alpha_mix =  0.700 |ddv_scf|^2 =  4.344E-13

     End of self-consistent calculation

     Convergence has been achieved 


     Representation #   2 mode #   2

     Self-consistent Calculation

      iter #   1 total cpu time :     6.4 secs   av.it.:   6.5
      thresh= 1.000E-02 alpha_mix =  0.700 |ddv_scf|^2 =  8.653E-04

      iter #   2 total cpu time :     6.7 secs   av.it.:   8.0
      thresh= 2.942E-03 alpha_mix =  0.700 |ddv_scf|^2 =  3.132E-03

      iter #   3 total cpu time :     6.9 secs   av.it.:   7.0
      thresh= 5.596E-03 alpha_mix =  0.700 |ddv_scf|^2 =  1.847E-06

      iter #   4 total cpu time :     7.2 secs   av.it.:   8.4
      thresh= 1.359E-04 alpha_mix =  0.700 |ddv_scf|^2 =  1.516E-07

      iter #   5 total cpu time :     7.5 secs   av.it.:   7.8
      thresh= 3.893E-05 alpha_mix =  0.700 |ddv_scf|^2 =  9.260E-10

      iter #   6 total cpu time :     7.7 secs   av.it.:   7.9
      thresh= 3.043E-06 alpha_mix =  0.700 |ddv_scf|^2 =  1.097E-10

      iter #   7 total cpu time :     8.0 secs   av.it.:   7.5
      thresh= 1.048E-06 alpha_mix =  0.700 |ddv_scf|^2 =  1.464E-11

      iter #   8 total cpu time :     8.3 secs   av.it.:   7.6
      thresh= 3.826E-07 alpha_mix =  0.700 |ddv_scf|^2 =  2.418E-13

     End of self-consistent calculation

     Convergence has been achieved 


     Representation #   3 modes #   3   4

     Self-consistent Calculation

      iter #   1 total cpu time :     8.8 secs   av.it.:   6.2
      thresh= 1.000E-02 alpha_mix =  0.700 |ddv_scf|^2 =  2.196E-06

      iter #   2 total cpu time :     9.4 secs   av.it.:   9.8
      thresh= 1.482E-04 alpha_mix =  0.700 |ddv_scf|^2 =  4.822E-08

      iter #   3 total cpu time :    10.0 secs   av.it.:   9.6
      thresh= 2.196E-05 alpha_mix =  0.700 |ddv_scf|^2 =  7.359E-11

      iter #   4 total cpu time :    10.6 secs   av.it.:   9.1
      thresh= 8.579E-07 alpha_mix =  0.700 |ddv_scf|^2 =  1.838E-12

      iter #   5 total cpu time :    11.2 secs   av.it.:   8.9
      thresh= 1.356E-07 alpha_mix =  0.700 |ddv_scf|^2 =  6.318E-15

     End of self-consistent calculation

     Convergence has been achieved 


     Representation #   4 modes #   5   6

     Self-consistent Calculation

      iter #   1 total cpu time :    11.6 secs   av.it.:   5.0
      thresh= 1.000E-02 alpha_mix =  0.700 |ddv_scf|^2 =  1.566E-07

      iter #   2 total cpu time :    12.2 secs   av.it.:   9.6
      thresh= 3.958E-05 alpha_mix =  0.700 |ddv_scf|^2 =  2.850E-09

      iter #   3 total cpu time :    12.8 secs   av.it.:   9.4
      thresh= 5.339E-06 alpha_mix =  0.700 |ddv_scf|^2 =  1.103E-10

      iter #   4 total cpu time :    13.4 secs   av.it.:   8.9
      thresh= 1.050E-06 alpha_mix =  0.700 |ddv_scf|^2 =  3.711E-12

      iter #   5 total cpu time :    13.9 secs   av.it.:   8.6
      thresh= 1.926E-07 alpha_mix =  0.700 |ddv_scf|^2 =  2.316E-15

     End of self-consistent calculation

     Convergence has been achieved 

     Number of q in the star =    4
     List of q in the star:
          1  -0.333333333   0.333333333  -0.333333333
          2   0.333333333   0.333333333   0.333333333
          3   0.333333333  -0.333333333  -0.333333333
          4  -0.333333333  -0.333333333   0.333333333
     In addition there is the -q list: 
          1   0.333333333  -0.333333333   0.333333333
          2  -0.333333333  -0.333333333  -0.333333333
          3  -0.333333333   0.333333333   0.333333333
          4   0.333333333   0.333333333  -0.333333333

     Diagonalizing the dynamical matrix

     q = (   -0.333333333   0.333333333  -0.333333333 ) 

 **************************************************************************
     freq (    1) =       6.887373 [THz] =     229.738040 [cm-1]
     freq (    2) =       6.887373 [THz] =     229.738040 [cm-1]
     freq (    3) =      14.874920 [THz] =     496.173936 [cm-1]
     freq (    4) =      22.550158 [THz] =     752.192299 [cm-1]
     freq (    5) =      22.550158 [THz] =     752.192299 [cm-1]
     freq (    6) =      25.540323 [THz] =     851.933480 [cm-1]
 **************************************************************************

     Mode symmetry, C_3v (3m)   point group:

     freq (   1-   2) =        229.7  [cm-1]   --> E    L_3           
     freq (   3-   3) =        496.2  [cm-1]   --> A_1  L_1           
     freq (   4-   5) =        752.2  [cm-1]   --> E    L_3           
     freq (   6-   6) =        851.9  [cm-1]   --> A_1  L_1           

     Calculation of q =    0.0000000   0.6666667   0.0000000

     G-vector sticks info
     --------------------
     sticks:   dense  smooth     PW     G-vecs:    dense   smooth      PW
     Sum         283     283    109                 3119     3119     749


     Title: 
     --                                                                         


     bravais-lattice index     =            2
     lattice parameter (alat)  =       8.2370  a.u.
     unit-cell volume          =     139.7163 (a.u.)^3
     number of atoms/cell      =            2
     number of atomic types    =            2
     number of electrons       =         8.00
     number of Kohn-Sham states=            4
     kinetic-energy cutoff     =      30.0000  Ry
     charge density cutoff     =     120.0000  Ry
     Exchange-correlation= PZ
                           (   1   1   0   0   0   0   0)

     celldm(1)=   8.237000  celldm(2)=   0.000000  celldm(3)=   0.000000
     celldm(4)=   0.000000  celldm(5)=   0.000000  celldm(6)=   0.000000

     crystal axes: (cart. coord. in units of alat)
               a(1) = (  -0.500000   0.000000   0.500000 )  
               a(2) = (   0.000000   0.500000   0.500000 )  
               a(3) = (  -0.500000   0.500000   0.000000 )  

     reciprocal axes: (cart. coord. in units 2 pi/alat)
               b(1) = ( -1.000000 -1.000000  1.000000 )  
               b(2) = (  1.000000  1.000000  1.000000 )  
               b(3) = ( -1.000000  1.000000 -1.000000 )  


     PseudoPot. # 1 for Si read from file:
     ../Si.pz-vbc.UPF
     MD5 check sum: 6dfa03ddd5817404712e03e4d12deb78
     Pseudo is Norm-conserving, Zval =  4.0
     Generated by new atomic code, or converted to UPF format
     Using radial grid of  431 points,  2 beta functions with: 
                l(1) =   0
                l(2) =   1

     PseudoPot. # 2 for C  read from file:
     ../C.UPF
     MD5 check sum: 4781e8ce5ee01a432381f51d0ea25c53
     Pseudo is Norm-conserving, Zval =  4.0
     Generated by new atomic code, or converted to UPF format
     Using radial grid of  461 points,  2 beta functions with: 
                l(1) =   0
                l(2) =   1

     atomic species   valence    mass     pseudopotential
        Si             4.00    28.08550     Si( 1.00)
        C              4.00    12.01078     C ( 1.00)

     24 Sym. Ops. (no inversion) found



   Cartesian axes

     site n.     atom                  positions (alat units)
         1           Si  tau(   1) = (   0.0000000   0.0000000   0.0000000  )
         2           C   tau(   2) = (   0.2500000   0.2500000   0.2500000  )

     number of k points=   328

     Number of k-points >= 100: set verbosity='high' to print them.

     Dense  grid:     3119 G-vectors     FFT dimensions: (  24,  24,  24)

     Estimated max dynamical RAM per process >       1.86 MB

     Estimated total dynamical RAM >       7.43 MB

     The potential is recalculated from file :
     ./_ph0/sic.q_3/sic.save/charge-density

     Starting wfcs are   13 atomic wfcs

     Band Structure Calculation
     Davidson diagonalization with overlap

     ethr =  1.25E-10,  avg # of iterations = 10.5

     total cpu time spent up to now is        1.7 secs

     End of band structure calculation

     Number of k-points >= 100: set verbosity='high' to print the bands.

     highest occupied level (ev):     9.3594

     Writing output data file ./_ph0/sic.q_3/sic.save/

     --                                                                         

     bravais-lattice index     =            2
     lattice parameter (alat)  =       8.2370  a.u.
     unit-cell volume          =     139.7163 (a.u.)^3
     number of atoms/cell      =            2
     number of atomic types    =            2
     kinetic-energy cut-off    =      30.0000  Ry
     charge density cut-off    =     120.0000  Ry
     convergence threshold     =      1.0E-12
     beta                      =       0.7000
     number of iterations used =            4
     Exchange-correlation= PZ
                           (   1   1   0   0   0   0   0)


     celldm(1)=    8.23700  celldm(2)=    0.00000  celldm(3)=    0.00000
     celldm(4)=    0.00000  celldm(5)=    0.00000  celldm(6)=    0.00000

     crystal axes: (cart. coord. in units of alat)
               a(1) = ( -0.5000  0.0000  0.5000 )  
               a(2) = (  0.0000  0.5000  0.5000 )  
               a(3) = ( -0.5000  0.5000  0.0000 )  

     reciprocal axes: (cart. coord. in units 2 pi/alat)
               b(1) = ( -1.0000 -1.0000  1.0000 )  
               b(2) = (  1.0000  1.0000  1.0000 )  
               b(3) = ( -1.0000  1.0000 -1.0000 )  


     Atoms inside the unit cell: 

     Cartesian axes

     site n.  atom      mass           positions (alat units)
        1     Si  28.0855   tau(    1) = (    0.00000    0.00000    0.00000  )
        2     C   12.0108   tau(    2) = (    0.25000    0.25000    0.25000  )

     Computing dynamical matrix for 
                    q = (   0.0000000   0.6666667   0.0000000 )

      4 Sym.Ops. (no q -> -q+G )


     G cutoff =  206.2337  (   3119 G-vectors)     FFT grid: ( 24, 24, 24)
     number of k points=   328

     PseudoPot. # 1 for Si read from file:
     ../Si.pz-vbc.UPF
     MD5 check sum: 6dfa03ddd5817404712e03e4d12deb78
     Pseudo is Norm-conserving, Zval =  4.0
     Generated by new atomic code, or converted to UPF format
     Using radial grid of  431 points,  2 beta functions with: 
                l(1) =   0
                l(2) =   1

     PseudoPot. # 2 for C  read from file:
     ../C.UPF
     MD5 check sum: 4781e8ce5ee01a432381f51d0ea25c53
     Pseudo is Norm-conserving, Zval =  4.0
     Generated by new atomic code, or converted to UPF format
     Using radial grid of  461 points,  2 beta functions with: 
                l(1) =   0
                l(2) =   1

     Mode symmetry, C_2v (mm2)  point group:


     Atomic displacements:
     There are    6 irreducible representations

     Representation     1      1 modes -  To be done

     Representation     2      1 modes -  To be done

     Representation     3      1 modes -  To be done

     Representation     4      1 modes -  To be done

     Representation     5      1 modes -  To be done

     Representation     6      1 modes -  To be done



     Alpha used in Ewald sum =   1.3000
     PHONON       :     14.45s CPU     14.93s WALL



     Representation #   1 mode #   1

     Self-consistent Calculation

      iter #   1 total cpu time :    15.2 secs   av.it.:   6.5
      thresh= 1.000E-02 alpha_mix =  0.700 |ddv_scf|^2 =  4.890E-04

      iter #   2 total cpu time :    15.6 secs   av.it.:   8.2
      thresh= 2.211E-03 alpha_mix =  0.700 |ddv_scf|^2 =  1.387E-03

      iter #   3 total cpu time :    16.0 secs   av.it.:   7.3
      thresh= 3.725E-03 alpha_mix =  0.700 |ddv_scf|^2 =  1.945E-06

      iter #   4 total cpu time :    16.3 secs   av.it.:   8.5
      thresh= 1.394E-04 alpha_mix =  0.700 |ddv_scf|^2 =  1.257E-07

      iter #   5 total cpu time :    16.7 secs   av.it.:   7.8
      thresh= 3.545E-05 alpha_mix =  0.700 |ddv_scf|^2 =  5.134E-11

      iter #   6 total cpu time :    17.1 secs   av.it.:   8.4
      thresh= 7.165E-07 alpha_mix =  0.700 |ddv_scf|^2 =  2.481E-12

      iter #   7 total cpu time :    17.4 secs   av.it.:   8.2
      thresh= 1.575E-07 alpha_mix =  0.700 |ddv_scf|^2 =  1.808E-13

     End of self-consistent calculation

     Convergence has been achieved 


     Representation #   2 mode #   2

     Self-consistent Calculation

      iter #   1 total cpu time :    17.8 secs   av.it.:   6.0
      thresh= 1.000E-02 alpha_mix =  0.700 |ddv_scf|^2 =  2.148E-04

      iter #   2 total cpu time :    18.1 secs   av.it.:   8.3
      thresh= 1.466E-03 alpha_mix =  0.700 |ddv_scf|^2 =  6.483E-04

      iter #   3 total cpu time :    18.5 secs   av.it.:   7.3
      thresh= 2.546E-03 alpha_mix =  0.700 |ddv_scf|^2 =  1.929E-07

      iter #   4 total cpu time :    18.8 secs   av.it.:   7.8
      thresh= 4.392E-05 alpha_mix =  0.700 |ddv_scf|^2 =  7.874E-09

      iter #   5 total cpu time :    19.2 secs   av.it.:   8.3
      thresh= 8.874E-06 alpha_mix =  0.700 |ddv_scf|^2 =  1.263E-10

      iter #   6 total cpu time :    19.6 secs   av.it.:   8.4
      thresh= 1.124E-06 alpha_mix =  0.700 |ddv_scf|^2 =  4.043E-12

      iter #   7 total cpu time :    20.0 secs   av.it.:   8.0
      thresh= 2.011E-07 alpha_mix =  0.700 |ddv_scf|^2 =  1.100E-13

     End of self-consistent calculation

     Convergence has been achieved 


     Representation #   3 mode #   3

     Self-consistent Calculation

      iter #   1 total cpu time :    20.3 secs   av.it.:   5.2
      thresh= 1.000E-02 alpha_mix =  0.700 |ddv_scf|^2 =  1.976E-06

      iter #   2 total cpu time :    20.7 secs   av.it.:   8.6
      thresh= 1.406E-04 alpha_mix =  0.700 |ddv_scf|^2 =  1.107E-07

      iter #   3 total cpu time :    21.1 secs   av.it.:   8.5
      thresh= 3.328E-05 alpha_mix =  0.700 |ddv_scf|^2 =  6.159E-10

      iter #   4 total cpu time :    21.5 secs   av.it.:   8.1
      thresh= 2.482E-06 alpha_mix =  0.700 |ddv_scf|^2 =  5.610E-12

      iter #   5 total cpu time :    21.8 secs   av.it.:   8.2
      thresh= 2.369E-07 alpha_mix =  0.700 |ddv_scf|^2 =  9.122E-15

     End of self-consistent calculation

     Convergence has been achieved 


     Representation #   4 mode #   4

     Self-consistent Calculation

      iter #   1 total cpu time :    22.2 secs   av.it.:   6.0
      thresh= 1.000E-02 alpha_mix =  0.700 |ddv_scf|^2 =  1.491E-05

      iter #   2 total cpu time :    22.6 secs   av.it.:   8.7
      thresh= 3.861E-04 alpha_mix =  0.700 |ddv_scf|^2 =  9.384E-07

      iter #   3 total cpu time :    23.0 secs   av.it.:   8.5
      thresh= 9.687E-05 alpha_mix =  0.700 |ddv_scf|^2 =  4.179E-10

      iter #   4 total cpu time :    23.4 secs   av.it.:   8.5
      thresh= 2.044E-06 alpha_mix =  0.700 |ddv_scf|^2 =  1.518E-11

      iter #   5 total cpu time :    23.8 secs   av.it.:   7.9
      thresh= 3.897E-07 alpha_mix =  0.700 |ddv_scf|^2 =  1.170E-14

     End of self-consistent calculation

     Convergence has been achieved 


     Representation #   5 mode #   5

     Self-consistent Calculation

      iter #   1 total cpu time :    24.1 secs   av.it.:   6.0
      thresh= 1.000E-02 alpha_mix =  0.700 |ddv_scf|^2 =  1.491E-05

      iter #   2 total cpu time :    24.5 secs   av.it.:   8.7
      thresh= 3.861E-04 alpha_mix =  0.700 |ddv_scf|^2 =  9.384E-07

      iter #   3 total cpu time :    24.9 secs   av.it.:   8.5
      thresh= 9.687E-05 alpha_mix =  0.700 |ddv_scf|^2 =  4.178E-10

      iter #   4 total cpu time :    25.3 secs   av.it.:   8.5
      thresh= 2.044E-06 alpha_mix =  0.700 |ddv_scf|^2 =  1.519E-11

      iter #   5 total cpu time :    25.7 secs   av.it.:   7.9
      thresh= 3.897E-07 alpha_mix =  0.700 |ddv_scf|^2 =  1.170E-14

     End of self-consistent calculation

     Convergence has been achieved 


     Representation #   6 mode #   6

     Self-consistent Calculation

      iter #   1 total cpu time :    26.0 secs   av.it.:   5.2
      thresh= 1.000E-02 alpha_mix =  0.700 |ddv_scf|^2 =  1.976E-06

      iter #   2 total cpu time :    26.4 secs   av.it.:   8.6
      thresh= 1.406E-04 alpha_mix =  0.700 |ddv_scf|^2 =  1.107E-07

      iter #   3 total cpu time :    26.9 secs   av.it.:   8.5
      thresh= 3.327E-05 alpha_mix =  0.700 |ddv_scf|^2 =  6.159E-10

      iter #   4 total cpu time :    27.3 secs   av.it.:   8.1
      thresh= 2.482E-06 alpha_mix =  0.700 |ddv_scf|^2 =  5.611E-12

      iter #   5 total cpu time :    27.7 secs   av.it.:   8.2
      thresh= 2.369E-07 alpha_mix =  0.700 |ddv_scf|^2 =  9.121E-15

     End of self-consistent calculation

     Convergence has been achieved 

     Number of q in the star =    6
     List of q in the star:
          1   0.000000000   0.666666667   0.000000000
          2   0.000000000   0.000000000  -0.666666667
          3  -0.666666667   0.000000000   0.000000000
          4   0.666666667   0.000000000   0.000000000
          5   0.000000000  -0.666666667   0.000000000
          6   0.000000000   0.000000000   0.666666667

     Diagonalizing the dynamical matrix

     q = (    0.000000000   0.666666667   0.000000000 ) 

 **************************************************************************
     freq (    1) =       9.570081 [THz] =     319.223536 [cm-1]
     freq (    2) =       9.570081 [THz] =     319.223536 [cm-1]
     freq (    3) =      14.966734 [THz] =     499.236518 [cm-1]
     freq (    4) =      22.350104 [THz] =     745.519217 [cm-1]
     freq (    5) =      22.350104 [THz] =     745.519217 [cm-1]
     freq (    6) =      25.636182 [THz] =     855.130974 [cm-1]
 **************************************************************************

     Mode symmetry, C_2v (mm2)  point group:

     freq (   1-   1) =        319.2  [cm-1]   --> B_1  D_3  S_3      
     freq (   2-   2) =        319.2  [cm-1]   --> B_2  D_4  S_4      
     freq (   3-   3) =        499.2  [cm-1]   --> A_1  D_1  S_1      
     freq (   4-   4) =        745.5  [cm-1]   --> B_1  D_3  S_3      
     freq (   5-   5) =        745.5  [cm-1]   --> B_2  D_4  S_4      
     freq (   6-   6) =        855.1  [cm-1]   --> A_1  D_1  S_1      

     Calculation of q =    0.6666667  -0.0000000   0.6666667

     G-vector sticks info
     --------------------
     sticks:   dense  smooth     PW     G-vecs:    dense   smooth      PW
     Sum         283     283    121                 3119     3119     893


     Title: 
     --                                                                         


     bravais-lattice index     =            2
     lattice parameter (alat)  =       8.2370  a.u.
     unit-cell volume          =     139.7163 (a.u.)^3
     number of atoms/cell      =            2
     number of atomic types    =            2
     number of electrons       =         8.00
     number of Kohn-Sham states=            4
     kinetic-energy cutoff     =      30.0000  Ry
     charge density cutoff     =     120.0000  Ry
     Exchange-correlation= PZ
                           (   1   1   0   0   0   0   0)

     celldm(1)=   8.237000  celldm(2)=   0.000000  celldm(3)=   0.000000
     celldm(4)=   0.000000  celldm(5)=   0.000000  celldm(6)=   0.000000

     crystal axes: (cart. coord. in units of alat)
               a(1) = (  -0.500000   0.000000   0.500000 )  
               a(2) = (   0.000000   0.500000   0.500000 )  
               a(3) = (  -0.500000   0.500000   0.000000 )  

     reciprocal axes: (cart. coord. in units 2 pi/alat)
               b(1) = ( -1.000000 -1.000000  1.000000 )  
               b(2) = (  1.000000  1.000000  1.000000 )  
               b(3) = ( -1.000000  1.000000 -1.000000 )  


     PseudoPot. # 1 for Si read from file:
     ../Si.pz-vbc.UPF
     MD5 check sum: 6dfa03ddd5817404712e03e4d12deb78
     Pseudo is Norm-conserving, Zval =  4.0
     Generated by new atomic code, or converted to UPF format
     Using radial grid of  431 points,  2 beta functions with: 
                l(1) =   0
                l(2) =   1

     PseudoPot. # 2 for C  read from file:
     ../C.UPF
     MD5 check sum: 4781e8ce5ee01a432381f51d0ea25c53
     Pseudo is Norm-conserving, Zval =  4.0
     Generated by new atomic code, or converted to UPF format
     Using radial grid of  461 points,  2 beta functions with: 
                l(1) =   0
                l(2) =   1

     atomic species   valence    mass     pseudopotential
        Si             4.00    28.08550     Si( 1.00)
        C              4.00    12.01078     C ( 1.00)

     24 Sym. Ops. (no inversion) found



   Cartesian axes

     site n.     atom                  positions (alat units)
         1           Si  tau(   1) = (   0.0000000   0.0000000   0.0000000  )
         2           C   tau(   2) = (   0.2500000   0.2500000   0.2500000  )

     number of k points=   576

     Number of k-points >= 100: set verbosity='high' to print them.

     Dense  grid:     3119 G-vectors     FFT dimensions: (  24,  24,  24)

     Estimated max dynamical RAM per process >       1.86 MB

     Estimated total dynamical RAM >       7.45 MB

     The potential is recalculated from file :
     ./_ph0/sic.q_4/sic.save/charge-density

     Starting wfcs are   13 atomic wfcs

     Band Structure Calculation
     Davidson diagonalization with overlap

     ethr =  1.25E-10,  avg # of iterations = 10.6

     total cpu time spent up to now is        3.5 secs

     End of band structure calculation

     Number of k-points >= 100: set verbosity='high' to print the bands.

     highest occupied level (ev):     9.3594

     Writing output data file ./_ph0/sic.q_4/sic.save/

     --                                                                         

     bravais-lattice index     =            2
     lattice parameter (alat)  =       8.2370  a.u.
     unit-cell volume          =     139.7163 (a.u.)^3
     number of atoms/cell      =            2
     number of atomic types    =            2
     kinetic-energy cut-off    =      30.0000  Ry
     charge density cut-off    =     120.0000  Ry
     convergence threshold     =      1.0E-12
     beta                      =       0.7000
     number of iterations used =            4
     Exchange-correlation= PZ
                           (   1   1   0   0   0   0   0)


     celldm(1)=    8.23700  celldm(2)=    0.00000  celldm(3)=    0.00000
     celldm(4)=    0.00000  celldm(5)=    0.00000  celldm(6)=    0.00000

     crystal axes: (cart. coord. in units of alat)
               a(1) = ( -0.5000  0.0000  0.5000 )  
               a(2) = (  0.0000  0.5000  0.5000 )  
               a(3) = ( -0.5000  0.5000  0.0000 )  

     reciprocal axes: (cart. coord. in units 2 pi/alat)
               b(1) = ( -1.0000 -1.0000  1.0000 )  
               b(2) = (  1.0000  1.0000  1.0000 )  
               b(3) = ( -1.0000  1.0000 -1.0000 )  


     Atoms inside the unit cell: 

     Cartesian axes

     site n.  atom      mass           positions (alat units)
        1     Si  28.0855   tau(    1) = (    0.00000    0.00000    0.00000  )
        2     C   12.0108   tau(    2) = (    0.25000    0.25000    0.25000  )

     Computing dynamical matrix for 
                    q = (   0.6666667  -0.0000000   0.6666667 )

      2 Sym.Ops. (no q -> -q+G )


     G cutoff =  206.2337  (   3119 G-vectors)     FFT grid: ( 24, 24, 24)
     number of k points=   576

     PseudoPot. # 1 for Si read from file:
     ../Si.pz-vbc.UPF
     MD5 check sum: 6dfa03ddd5817404712e03e4d12deb78
     Pseudo is Norm-conserving, Zval =  4.0
     Generated by new atomic code, or converted to UPF format
     Using radial grid of  431 points,  2 beta functions with: 
                l(1) =   0
                l(2) =   1

     PseudoPot. # 2 for C  read from file:
     ../C.UPF
     MD5 check sum: 4781e8ce5ee01a432381f51d0ea25c53
     Pseudo is Norm-conserving, Zval =  4.0
     Generated by new atomic code, or converted to UPF format
     Using radial grid of  461 points,  2 beta functions with: 
                l(1) =   0
                l(2) =   1

     Mode symmetry, C_s (m)     point group:


     Atomic displacements:
     There are    6 irreducible representations

     Representation     1      1 modes -  To be done

     Representation     2      1 modes -  To be done

     Representation     3      1 modes -  To be done

     Representation     4      1 modes -  To be done

     Representation     5      1 modes -  To be done

     Representation     6      1 modes -  To be done



     Alpha used in Ewald sum =   1.3000
     PHONON       :     28.84s CPU     29.62s WALL



     Representation #   1 mode #   1

     Self-consistent Calculation

      iter #   1 total cpu time :    30.2 secs   av.it.:   5.9
      thresh= 1.000E-02 alpha_mix =  0.700 |ddv_scf|^2 =  2.927E-05

      iter #   2 total cpu time :    30.9 secs   av.it.:   8.9
      thresh= 5.410E-04 alpha_mix =  0.700 |ddv_scf|^2 =  3.073E-05

      iter #   3 total cpu time :    31.7 secs   av.it.:   8.2
      thresh= 5.544E-04 alpha_mix =  0.700 |ddv_scf|^2 =  5.279E-07

      iter #   4 total cpu time :    32.5 secs   av.it.:   8.2
      thresh= 7.266E-05 alpha_mix =  0.700 |ddv_scf|^2 =  5.245E-09

      iter #   5 total cpu time :    33.4 secs   av.it.:   8.4
      thresh= 7.243E-06 alpha_mix =  0.700 |ddv_scf|^2 =  4.686E-10

      iter #   6 total cpu time :    34.1 secs   av.it.:   8.4
      thresh= 2.165E-06 alpha_mix =  0.700 |ddv_scf|^2 =  1.880E-11

      iter #   7 total cpu time :    34.9 secs   av.it.:   8.4
      thresh= 4.336E-07 alpha_mix =  0.700 |ddv_scf|^2 =  2.662E-13

     End of self-consistent calculation

     Convergence has been achieved 


     Representation #   2 mode #   2

     Self-consistent Calculation

      iter #   1 total cpu time :    35.5 secs   av.it.:   6.3
      thresh= 1.000E-02 alpha_mix =  0.700 |ddv_scf|^2 =  6.575E-05

      iter #   2 total cpu time :    36.3 secs   av.it.:   8.8
      thresh= 8.109E-04 alpha_mix =  0.700 |ddv_scf|^2 =  2.919E-05

      iter #   3 total cpu time :    37.2 secs   av.it.:   8.3
      thresh= 5.403E-04 alpha_mix =  0.700 |ddv_scf|^2 =  7.438E-07

      iter #   4 total cpu time :    37.9 secs   av.it.:   8.2
      thresh= 8.624E-05 alpha_mix =  0.700 |ddv_scf|^2 =  7.309E-09

      iter #   5 total cpu time :    38.8 secs   av.it.:   8.3
      thresh= 8.549E-06 alpha_mix =  0.700 |ddv_scf|^2 =  4.343E-10

      iter #   6 total cpu time :    39.5 secs   av.it.:   8.4
      thresh= 2.084E-06 alpha_mix =  0.700 |ddv_scf|^2 =  2.391E-11

      iter #   7 total cpu time :    40.3 secs   av.it.:   8.6
      thresh= 4.890E-07 alpha_mix =  0.700 |ddv_scf|^2 =  1.066E-12

      iter #   8 total cpu time :    41.1 secs   av.it.:   8.5
      thresh= 1.032E-07 alpha_mix =  0.700 |ddv_scf|^2 =  6.576E-14

     End of self-consistent calculation

     Convergence has been achieved 


     Representation #   3 mode #   3

     Self-consistent Calculation

      iter #   1 total cpu time :    41.7 secs   av.it.:   6.4
      thresh= 1.000E-02 alpha_mix =  0.700 |ddv_scf|^2 =  1.015E-04

      iter #   2 total cpu time :    42.5 secs   av.it.:   8.8
      thresh= 1.007E-03 alpha_mix =  0.700 |ddv_scf|^2 =  7.603E-05

      iter #   3 total cpu time :    43.3 secs   av.it.:   8.1
      thresh= 8.720E-04 alpha_mix =  0.700 |ddv_scf|^2 =  5.289E-07

      iter #   4 total cpu time :    44.1 secs   av.it.:   8.4
      thresh= 7.272E-05 alpha_mix =  0.700 |ddv_scf|^2 =  2.132E-08

      iter #   5 total cpu time :    44.8 secs   av.it.:   8.2
      thresh= 1.460E-05 alpha_mix =  0.700 |ddv_scf|^2 =  2.168E-10

      iter #   6 total cpu time :    45.6 secs   av.it.:   8.5
      thresh= 1.472E-06 alpha_mix =  0.700 |ddv_scf|^2 =  1.020E-11

      iter #   7 total cpu time :    46.4 secs   av.it.:   8.5
      thresh= 3.194E-07 alpha_mix =  0.700 |ddv_scf|^2 =  3.698E-13

     End of self-consistent calculation

     Convergence has been achieved 


     Representation #   4 mode #   4

     Self-consistent Calculation

      iter #   1 total cpu time :    47.0 secs   av.it.:   5.9
      thresh= 1.000E-02 alpha_mix =  0.700 |ddv_scf|^2 =  2.915E-05

      iter #   2 total cpu time :    47.8 secs   av.it.:   8.9
      thresh= 5.399E-04 alpha_mix =  0.700 |ddv_scf|^2 =  3.111E-05

      iter #   3 total cpu time :    48.6 secs   av.it.:   8.2
      thresh= 5.578E-04 alpha_mix =  0.700 |ddv_scf|^2 =  5.156E-07

      iter #   4 total cpu time :    49.4 secs   av.it.:   8.2
      thresh= 7.181E-05 alpha_mix =  0.700 |ddv_scf|^2 =  5.652E-09

      iter #   5 total cpu time :    50.1 secs   av.it.:   8.4
      thresh= 7.518E-06 alpha_mix =  0.700 |ddv_scf|^2 =  4.541E-10

      iter #   6 total cpu time :    50.9 secs   av.it.:   8.4
      thresh= 2.131E-06 alpha_mix =  0.700 |ddv_scf|^2 =  1.933E-11

      iter #   7 total cpu time :    51.7 secs   av.it.:   8.4
      thresh= 4.397E-07 alpha_mix =  0.700 |ddv_scf|^2 =  3.081E-13

     End of self-consistent calculation

     Convergence has been achieved 


     Representation #   5 mode #   5

     Self-consistent Calculation

      iter #   1 total cpu time :    52.4 secs   av.it.:   6.0
      thresh= 1.000E-02 alpha_mix =  0.700 |ddv_scf|^2 =  1.295E-05

      iter #   2 total cpu time :    53.2 secs   av.it.:   8.8
      thresh= 3.598E-04 alpha_mix =  0.700 |ddv_scf|^2 =  6.621E-07

      iter #   3 total cpu time :    54.2 secs   av.it.:   8.6
      thresh= 8.137E-05 alpha_mix =  0.700 |ddv_scf|^2 =  4.078E-10

      iter #   4 total cpu time :    55.0 secs   av.it.:   8.4
      thresh= 2.019E-06 alpha_mix =  0.700 |ddv_scf|^2 =  1.414E-11

      iter #   5 total cpu time :    55.8 secs   av.it.:   7.9
      thresh= 3.760E-07 alpha_mix =  0.700 |ddv_scf|^2 =  1.401E-14

     End of self-consistent calculation

     Convergence has been achieved 


     Representation #   6 mode #   6

     Self-consistent Calculation

      iter #   1 total cpu time :    56.4 secs   av.it.:   5.1
      thresh= 1.000E-02 alpha_mix =  0.700 |ddv_scf|^2 =  1.502E-06

      iter #   2 total cpu time :    57.3 secs   av.it.:   8.7
      thresh= 1.226E-04 alpha_mix =  0.700 |ddv_scf|^2 =  6.804E-08

      iter #   3 total cpu time :    58.1 secs   av.it.:   8.6
      thresh= 2.608E-05 alpha_mix =  0.700 |ddv_scf|^2 =  5.770E-10

      iter #   4 total cpu time :    58.9 secs   av.it.:   8.1
      thresh= 2.402E-06 alpha_mix =  0.700 |ddv_scf|^2 =  6.334E-12

      iter #   5 total cpu time :    59.7 secs   av.it.:   8.1
      thresh= 2.517E-07 alpha_mix =  0.700 |ddv_scf|^2 =  9.660E-15

     End of self-consistent calculation

     Convergence has been achieved 

     Number of q in the star =   12
     List of q in the star:
          1   0.666666667   0.000000000   0.666666667
          2  -0.666666667   0.000000000  -0.666666667
          3   0.666666667  -0.666666667   0.000000000
          4   0.000000000  -0.666666667   0.666666667
          5   0.000000000  -0.666666667  -0.666666667
          6  -0.666666667   0.000000000   0.666666667
          7   0.666666667   0.666666667   0.000000000
          8  -0.666666667  -0.666666667   0.000000000
          9  -0.666666667   0.666666667   0.000000000
         10   0.666666667   0.000000000  -0.666666667
         11   0.000000000   0.666666667   0.666666667
         12   0.000000000   0.666666667  -0.666666667

     Diagonalizing the dynamical matrix

     q = (    0.666666667  -0.000000000   0.666666667 ) 

 **************************************************************************
     freq (    1) =       9.891131 [THz] =     329.932609 [cm-1]
     freq (    2) =      13.584645 [THz] =     453.134972 [cm-1]
     freq (    3) =      15.815643 [THz] =     527.553069 [cm-1]
     freq (    4) =      21.649446 [THz] =     722.147771 [cm-1]
     freq (    5) =      21.954921 [THz] =     732.337351 [cm-1]
     freq (    6) =      24.674600 [THz] =     823.056064 [cm-1]
 **************************************************************************

     Mode symmetry, C_s (m)     point group:

     freq (   1-   1) =        329.9  [cm-1]   --> A''                
     freq (   2-   2) =        453.1  [cm-1]   --> A'                 
     freq (   3-   3) =        527.6  [cm-1]   --> A'                 
     freq (   4-   4) =        722.1  [cm-1]   --> A'                 
     freq (   5-   5) =        732.3  [cm-1]   --> A''                
     freq (   6-   6) =        823.1  [cm-1]   --> A'                 

     init_run     :      0.08s CPU      0.08s WALL (       3 calls)
     electrons    :      3.37s CPU      3.42s WALL (       3 calls)

     Called by init_run:
     wfcinit      :      0.00s CPU      0.00s WALL (       3 calls)
     potinit      :      0.01s CPU      0.01s WALL (       3 calls)
     hinit0       :      0.06s CPU      0.06s WALL (       3 calls)

     Called by electrons:
     c_bands      :      3.37s CPU      3.42s WALL (       3 calls)
     v_of_rho     :      0.00s CPU      0.00s WALL (       4 calls)

     Called by c_bands:
     init_us_2    :      0.26s CPU      0.27s WALL (    6504 calls)
     cegterg      :      2.48s CPU      2.52s WALL (     286 calls)

     Called by *egterg:
     cdiaghg      :      0.16s CPU      0.16s WALL (    3330 calls)
     h_psi        :     43.56s CPU     44.49s WALL (   57166 calls)
     g_psi        :      0.01s CPU      0.01s WALL (    3044 calls)

     Called by h_psi:
     h_psi:calbec :      0.54s CPU      0.58s WALL (   57166 calls)
     vloc_psi     :     42.24s CPU     43.06s WALL (   57166 calls)
     add_vuspsi   :      0.58s CPU      0.60s WALL (   57166 calls)

     General routines
     calbec       :      0.98s CPU      1.02s WALL (  115874 calls)
     fft          :      0.07s CPU      0.07s WALL (     451 calls)
     ffts         :      0.14s CPU      0.14s WALL (    1062 calls)
     fftw         :     45.56s CPU     46.35s WALL (  502246 calls)
     davcio       :      0.07s CPU      0.26s WALL (   28657 calls)

     Parallel routines

     PHONON       :     57.93s CPU     59.69s WALL

     INITIALIZATION: 
     phq_setup    :      0.01s CPU      0.01s WALL (       4 calls)
     phq_init     :      0.11s CPU      0.11s WALL (       4 calls)

     phq_init     :      0.11s CPU      0.11s WALL (       4 calls)
     init_vloc    :      0.00s CPU      0.00s WALL (       4 calls)
     init_us_1    :      0.03s CPU      0.04s WALL (       4 calls)

     DYNAMICAL MATRIX:
     dynmat0      :      0.03s CPU      0.03s WALL (       4 calls)
     phqscf       :     53.00s CPU     54.61s WALL (       4 calls)
     dynmatrix    :      0.00s CPU      0.01s WALL (       4 calls)

     phqscf       :     53.00s CPU     54.61s WALL (       4 calls)
     solve_linter :     52.90s CPU     54.48s WALL (      18 calls)
     drhodv       :      0.10s CPU      0.10s WALL (      18 calls)

     dynmat0      :      0.03s CPU      0.03s WALL (       4 calls)
     dynmat_us    :      0.02s CPU      0.02s WALL (       4 calls)
     d2ionq       :      0.00s CPU      0.00s WALL (       4 calls)

     dynmat_us    :      0.02s CPU      0.02s WALL (       4 calls)

     phqscf       :     53.00s CPU     54.61s WALL (       4 calls)
     solve_linter :     52.90s CPU     54.48s WALL (      18 calls)

     solve_linter :     52.90s CPU     54.48s WALL (      18 calls)
     dvqpsi_us    :      0.86s CPU      0.87s WALL (     954 calls)
     ortho        :      0.08s CPU      0.09s WALL (    5594 calls)
     cgsolve      :     42.71s CPU     43.76s WALL (    5594 calls)
     incdrhoscf   :      4.46s CPU      4.55s WALL (    5570 calls)
     vpsifft      :      3.38s CPU      3.46s WALL (    4568 calls)
     dv_of_drho   :      0.06s CPU      0.07s WALL (     145 calls)
     mix_pot      :      0.54s CPU      0.62s WALL (     111 calls)
     psymdvscf    :      0.19s CPU      0.20s WALL (     107 calls)

     dvqpsi_us    :      0.86s CPU      0.87s WALL (     954 calls)
     dvqpsi_us_on :      0.03s CPU      0.03s WALL (     954 calls)

     cgsolve      :     42.71s CPU     43.76s WALL (    5594 calls)
     ch_psi       :     42.31s CPU     43.34s WALL (   53550 calls)

     ch_psi       :     42.31s CPU     43.34s WALL (   53550 calls)
     h_psi        :     43.56s CPU     44.49s WALL (   57166 calls)
     last         :      1.29s CPU      1.36s WALL (   53550 calls)

     h_psi        :     43.56s CPU     44.49s WALL (   57166 calls)
     add_vuspsi   :      0.58s CPU      0.60s WALL (   57166 calls)

     incdrhoscf   :      4.46s CPU      4.55s WALL (    5570 calls)


      General routines
     calbec       :      0.98s CPU      1.02s WALL (  115874 calls)
     fft          :      0.07s CPU      0.07s WALL (     451 calls)
     ffts         :      0.14s CPU      0.14s WALL (    1062 calls)
     fftw         :     45.56s CPU     46.35s WALL (  502246 calls)
     davcio       :      0.07s CPU      0.26s WALL (   28657 calls)
     write_rec    :      0.02s CPU      0.15s WALL (     129 calls)


     PHONON       :     57.93s CPU     59.69s WALL


   This run was terminated on:  21:41:37  15Jun2021            

=------------------------------------------------------------------------------=
   JOB DONE.
=------------------------------------------------------------------------------=
